# vtk DataFile Version 4.2
vtk output
ASCII
DATASET POLYDATA
POINTS 9 float
-29.5478 -1.07365 24.097 -25.756 16.7512 5.05388 32.9885 20.7172 30.2105 
30.1278 5.96908 48.2988 31.173 -23.1288 53.6792 6.47052 -36.9437 8.84375 
14.5898 -24.8248 -8.09674 45.6524 -12.7405 4.88112 29.6217 -33.0921 27.6452 

VERTICES 9 18
1 0 
1 1 
1 2 
1 3 
1 4 
1 5 
1 6 
1 7 
1 8 

POINT_DATA 9
FIELD FieldData 1
seed_label 1 9 double
0 1 2 3 4 5 6 7 8 

