# vtk DataFile Version 4.2
vtk output
ASCII
DATASET POLYDATA
POINTS 18179 float
0.386663 -0.218614 0 0.389339 -0.213659 0 0.386525 -0.214555 0 
0.389637 -0.220352 0 0.391346 -0.215858 0 0.392617 -0.222081 0 
0.39413 -0.218057 0 0.395606 -0.223799 0 0.39705 -0.220528 0 
0.398603 -0.225503 0 0.399777 -0.223438 0 0.39921 -0.228955 0 
0.401614 -0.22719 0 0.402068 -0.230067 0 0.38073 -0.215115 0 
0.382788 -0.210678 0 0.380277 -0.211669 0 0.383694 -0.216868 0 
0.384662 -0.212596 0 0.383767 -0.220418 0 0.385775 -0.222038 0 
0.388165 -0.223581 0 0.390714 -0.225111 0 0.393005 -0.226952 0 
0.39397 -0.22994 0 0.399891 -0.231572 0 0.395015 -0.232726 0 
0.397245 -0.234716 0 0.37777 -0.213356 0 0.378162 -0.210356 0 
0.374813 -0.211591 0 0.377909 -0.216522 0 0.379573 -0.218383 0 
0.380439 -0.22088 0 0.381491 -0.223184 0 0.383243 -0.224924 0 
0.385042 -0.226678 0 0.386499 -0.228822 0 0.387129 -0.23178 0 
0.387583 -0.235175 0 0.391282 -0.237275 0 0.372846 -0.214403 0 
0.370666 -0.212343 0 0.374214 -0.216798 0 0.37511 -0.21934 0 
0.376009 -0.221647 0 0.376739 -0.223938 0 0.37763 -0.226073 0 
0.37862 -0.228172 0 0.379258 -0.230608 0 0.379266 -0.233632 0 
0.378869 -0.237077 0 0.384782 -0.239599 0 0.378209 -0.240618 0 
0.378377 -0.244013 0 0.367659 -0.21499 0 0.366961 -0.212514 0 
0.369446 -0.217369 0 0.370281 -0.219857 0 0.370762 -0.222315 0 
0.37113 -0.224677 0 0.371385 -0.227025 0 0.371511 -0.229467 0 
0.371327 -0.232195 0 0.370594 -0.235401 0 0.369366 -0.239097 0 
0.367923 -0.24325 0 0.370417 -0.246395 0 0.362825 -0.213678 0 
0.364468 -0.210903 0 0.36087 -0.210981 0 0.36274 -0.216209 0 
0.364214 -0.218089 0 0.364811 -0.220402 0 0.364929 -0.222844 0 
0.364779 -0.225317 0 0.364427 -0.227838 0 0.36381 -0.230516 0 
0.362823 -0.233486 0 0.361342 -0.236864 0 0.359354 -0.240679 0 
0.357063 -0.244832 0 0.361977 -0.248605 0 0.354464 -0.249106 0 
0.352906 -0.253394 0 0.357625 -0.213646 0 0.35636 -0.211191 0 
0.358115 -0.216116 0 0.358322 -0.218565 0 0.358661 -0.22085 0 
0.358443 -0.223275 0 0.357812 -0.225811 0 0.356851 -0.228469 0 
0.355551 -0.231317 0 0.353835 -0.234461 0 0.351621 -0.237988 0 
0.348866 -0.241948 0 0.34564 -0.246347 0 0.342178 -0.251228 0 
0.343452 -0.255355 0 0.352244 -0.213807 0 0.351378 -0.211497 0 
0.352603 -0.216187 0 0.352468 -0.218624 0 0.352058 -0.221073 0 
0.3514 -0.223544 0 0.3503 -0.226131 0 0.348777 -0.22888 0 
0.346845 -0.231845 0 0.344469 -0.235104 0 0.341595 -0.238724 0 
0.338176 -0.242755 0 0.334237 -0.247201 0 0.329928 -0.251999 0 
0.333646 -0.257057 0 0.325532 -0.256825 0 0.322602 -0.261737 0 
0.346502 -0.213955 0 0.345924 -0.211778 0 0.346581 -0.216243 0 
0.346133 -0.218619 0 0.345241 -0.221071 0 0.343986 -0.223604 0 
0.342368 -0.226243 0 0.340309 -0.229052 0 0.337802 -0.232086 0 
0.334828 -0.235408 0 0.331363 -0.239074 0 0.327365 -0.243129 0 
0.322808 -0.2476 0 0.317652 -0.252534 0 0.311813 -0.258082 0 
0.312195 -0.262972 0 0.340396 -0.213984 0 0.340064 -0.211886 0 
0.340168 -0.216193 0 0.339379 -0.218506 0 0.338079 -0.220923 0 
0.336324 -0.223457 0 0.334161 -0.226125 0 0.331572 -0.228967 0 
0.328535 -0.232033 0 0.325027 -0.235376 0 0.321039 -0.239043 0 
0.316555 -0.243069 0 0.311557 -0.247473 0 0.306003 -0.252269 0 
0.299851 -0.257452 0 0.301448 -0.263912 0 0.291864 -0.263114 0 
0.289932 -0.268149 0 0.334033 -0.213824 0 0.333963 -0.211757 0 
0.333475 -0.215978 0 0.332325 -0.218233 0 0.33063 -0.220604 0 
0.328433 -0.223112 0 0.325778 -0.225775 0 0.322678 -0.228622 0 
0.319143 -0.231687 0 0.315167 -0.235015 0 0.31073 -0.238646 0 
0.305818 -0.242611 0 0.300467 -0.246911 0 0.294585 -0.25157 0 
0.288123 -0.256564 0 0.280904 -0.261834 0 0.279968 -0.269101 0 
0.272745 -0.267332 0 0.266944 -0.272946 0 0.327581 -0.213459 0 
0.32776 -0.211406 0 0.326646 -0.215566 0 0.325117 -0.217765 0 
0.32303 -0.220084 0 0.320418 -0.222551 0 0.317323 -0.225185 0 
0.313758 -0.22801 0 0.309757 -0.23105 0 0.305346 -0.234335 0 
0.300559 -0.237894 0 0.295298 -0.24177 0 0.289586 -0.245958 0 
0.283575 -0.250431 0 0.276892 -0.255277 0 0.269373 -0.260487 0 
0.26148 -0.266062 0 0.254875 -0.272294 0 0.321194 -0.212922 0 
0.321549 -0.210909 0 0.319798 -0.214953 0 0.317884 -0.217083 0 
0.315415 -0.21934 0 0.312416 -0.221754 0 0.308919 -0.224341 0 
0.304936 -0.227125 0 0.300503 -0.230119 0 0.295665 -0.233347 0 
0.29053 -0.236819 0 0.285158 -0.240556 0 0.279139 -0.244625 0 
0.272668 -0.248945 0 0.266566 -0.253434 0 0.258856 -0.258491 0 
0.250202 -0.263868 0 0.242782 -0.270035 0 0.315042 -0.212295 0 
0.315719 -0.210559 0 0.312979 -0.214138 0 0.310742 -0.216175 0 
0.307928 -0.218358 0 0.30458 -0.220705 0 0.300728 -0.223233 0 
0.296378 -0.225956 0 0.291559 -0.22889 0 0.286312 -0.232049 0 
0.280761 -0.235441 0 0.275104 -0.239062 0 0.269612 -0.242893 0 
0.262376 -0.247136 0 0.25511 -0.25145 0 0.250955 -0.255825 0 
0.239988 -0.260497 0 0.231718 -0.266916 0 0.310253 -0.211337 0 
0.304101 -0.210855 0 0.306351 -0.212963 0 0.303806 -0.215017 0 
0.300644 -0.217133 0 0.296989 -0.219407 0 0.292834 -0.221862 0 
0.288174 -0.224513 0 0.283029 -0.227369 0 0.27742 -0.230448 0 
0.271434 -0.233763 0 0.265248 -0.237326 0 0.259303 -0.241104 0 
0.254909 -0.244853 0 0.243942 -0.248901 0 0.237754 -0.254542 0 
0.226151 -0.25925 0 0.222679 -0.263705 0 0.299247 -0.212126 0 
0.296398 -0.210622 0 0.296906 -0.213753 0 0.293539 -0.215705 0 
0.289645 -0.217885 0 0.28525 -0.220262 0 0.28034 -0.222831 0 
0.274932 -0.225599 0 0.269037 -0.228582 0 0.262698 -0.231801 0 
0.256015 -0.235299 0 0.249242 -0.239153 0 0.242915 -0.243645 0 
0.231265 -0.247394 0 0.225809 -0.251601 0 0.2203 -0.256158 0 
0.290829 -0.212042 0 0.286782 -0.213994 0 0.28254 -0.21615 0 
0.277892 -0.218475 0 0.272753 -0.220973 0 0.267122 -0.22365 0 
0.261004 -0.226526 0 0.254416 -0.229626 0 0.247417 -0.232981 0 
0.240191 -0.236635 0 0.2332 -0.240581 0 0.227036 -0.24433 0 
0.395182 -0.201111 0 0.397742 -0.193094 0 0.394044 -0.196015 0 
0.397773 -0.204685 0 0.400288 -0.195857 0 0.400446 -0.208389 0 
0.402574 -0.2001 0 0.40317 -0.212275 0 0.405111 -0.204512 0 
0.405661 -0.216519 0 0.407862 -0.208413 0 0.407418 -0.221593 0 
0.410352 -0.212891 0 0.408598 -0.226323 0 0.412121 -0.217862 0 
0.41276 -0.222894 0 0.387171 -0.199694 0 0.388721 -0.192785 0 
0.385622 -0.195596 0 0.390237 -0.201978 0 0.391417 -0.194333 0 
0.391773 -0.205505 0 0.393001 -0.209227 0 0.395809 -0.212136 0 
0.398631 -0.215303 0 0.401374 -0.218828 0 0.403598 -0.223201 0 
0.404645 -0.228847 0 0.410746 -0.228178 0 0.407693 -0.230481 0 
0.406634 -0.235985 0 0.410775 -0.232071 0 0.41 -0.236578 0 
0.382298 -0.200765 0 0.383283 -0.194245 0 0.380231 -0.197206 0 
0.384169 -0.203716 0 0.385853 -0.206627 0 0.388577 -0.209185 0 
0.402988 -0.232413 0 0.401686 -0.23727 0 0.406957 -0.23928 0 
0.400921 -0.241819 0 0.40536 -0.242405 0 0.377063 -0.202025 0 
0.377559 -0.196208 0 0.373918 -0.1989 0 0.37926 -0.204582 0 
0.381247 -0.207191 0 0.394579 -0.239453 0 0.393143 -0.244255 0 
0.400013 -0.245781 0 0.391457 -0.249268 0 0.396316 -0.25028 0 
0.372399 -0.205083 0 0.370491 -0.200944 0 0.376202 -0.207554 0 
0.385138 -0.242958 0 0.383555 -0.247249 0 0.381048 -0.252573 0 
0.388354 -0.254871 0 0.377574 -0.258864 0 0.382276 -0.260902 0 
0.367371 -0.203963 0 0.367791 -0.199438 0 0.364659 -0.20077 0 
0.368907 -0.208049 0 0.371859 -0.209822 0 0.372509 -0.249913 0 
0.369556 -0.25557 0 0.365313 -0.262181 0 0.372302 -0.266011 0 
0.359814 -0.269937 0 0.364448 -0.272968 0 0.36301 -0.204493 0 
0.362005 -0.201381 0 0.365958 -0.206272 0 0.367569 -0.209833 0 
0.360623 -0.252961 0 0.357102 -0.258326 0 0.352513 -0.264886 0 
0.34633 -0.272778 0 0.353022 -0.278102 0 0.338839 -0.281922 0 
0.344078 -0.28543 0 0.360064 -0.20271 0 0.359959 -0.199998 0 
0.35712 -0.200925 0 0.360939 -0.205716 0 0.363314 -0.207924 0 
0.344349 -0.260036 0 0.339353 -0.266785 0 0.332903 -0.274566 0 
0.324793 -0.283732 0 0.330671 -0.291234 0 0.315145 -0.294575 0 
0.301233 -0.306608 0 0.320421 -0.300378 0 0.310264 -0.309505 0 
0.355719 -0.203761 0 0.353487 -0.201947 0 0.357595 -0.205887 0 
0.359285 -0.208407 0 0.330861 -0.262156 0 0.325688 -0.268223 0 
0.319296 -0.275541 0 0.311294 -0.284104 0 0.301755 -0.293949 0 
0.289967 -0.305085 0 0.294613 -0.315755 0 0.277613 -0.317627 0 
0.262992 -0.32994 0 0.283755 -0.325077 0 0.272656 -0.334438 0 
0.351089 -0.204639 0 0.350203 -0.202564 0 0.353326 -0.206573 0 
0.354981 -0.208788 0 0.312155 -0.268538 0 0.305443 -0.275806 0 
0.297438 -0.283859 0 0.288122 -0.292956 0 0.277243 -0.303122 0 
0.265168 -0.314334 0 0.251714 -0.326308 0 0.255657 -0.339857 0 
0.238379 -0.339492 0 0.222508 -0.35211 0 0.243481 -0.349675 0 
0.20892 -0.363 0 0.230488 -0.361251 0 0.21634 -0.371205 0 
0.346449 -0.203878 0 0.347882 -0.20146 0 0.344319 -0.201798 0 
0.346833 -0.205935 0 0.348757 -0.207399 0 0.350217 -0.209325 0 
0.297952 -0.269428 0 0.291169 -0.275768 0 0.283089 -0.283139 0 
0.274096 -0.291508 0 0.263743 -0.300845 0 0.252191 -0.311047 0 
0.239638 -0.321935 0 0.226648 -0.33341 0 0.212938 -0.344871 0 
0.198446 -0.356146 0 0.199849 -0.372719 0 0.185284 -0.367478 0 
0.18639 -0.378709 0 0.341525 -0.204081 0 0.339962 -0.202196 0 
0.342525 -0.206002 0 0.343577 -0.207929 0 0.344931 -0.209757 0 
0.27768 -0.274706 0 0.26842 -0.281674 0 0.25977 -0.289504 0 
0.24981 -0.298168 0 0.238652 -0.307557 0 0.226621 -0.317533 0 
0.214045 -0.32794 0 0.201079 -0.338505 0 0.187858 -0.349026 0 
0.174248 -0.359637 0 0.172182 -0.377058 0 0.160334 -0.370075 0 
0.15762 -0.381705 0 0.336422 -0.20425 0 0.335121 -0.202467 0 
0.337408 -0.206089 0 0.338297 -0.207979 0 0.339248 -0.209905 0 
0.25376 -0.279101 0 0.245462 -0.286814 0 0.235769 -0.295013 0 
0.224876 -0.303751 0 0.213142 -0.312959 0 0.200934 -0.32253 0 
0.188368 -0.332318 0 0.175715 -0.34212 0 0.163821 -0.351774 0 
0.150211 -0.361332 0 0.144306 -0.37832 0 0.136372 -0.369972 0 
0.12744 -0.380191 0 0.330986 -0.204186 0 0.329968 -0.20238 0 
0.331745 -0.206013 0 0.332482 -0.20786 0 0.333315 -0.209763 0 
0.237006 -0.276786 0 0.230893 -0.283807 0 0.221749 -0.291477 0 
0.211135 -0.29961 0 0.199594 -0.308143 0 0.187601 -0.316985 0 
[...]
POINT_DATA 18179
FIELD FieldData 2
scalars 1 18179 double
68 61 64 71 62 78 67 84 78 
84 83 79 83 79 67 62 67 71 
62 77 78 80 83 83 78 76 75 
75 75 70 72 76 76 80 81 80 
78 80 74 74 75 73 64 77 80 
82 82 77 70 66 69 75 78 80 
80 74 66 78 80 80 79 73 62 
58 66 74 78 79 78 67 76 84 
83 80 74 73 71 64 59 63 68 
68 71 65 63 84 84 85 85 80 
72 66 68 70 60 60 63 62 60 
59 86 87 84 77 73 71 65 65 
70 65 64 70 67 63 58 59 59 
79 79 76 69 67 68 67 68 74 
75 72 72 69 66 68 67 71 67 
71 70 69 66 66 72 76 77 72 
64 63 69 76 77 80 79 64 63 
66 67 67 66 66 68 70 71 67 
61 63 69 75 76 74 74 64 61 
64 60 60 61 63 65 63 62 66 
66 62 63 66 70 73 73 65 62 
65 59 59 61 63 64 63 63 63 
61 61 62 63 66 70 73 67 64 
66 59 58 60 64 63 65 67 63 
58 61 63 63 62 65 69 67 66 
66 62 59 59 63 64 67 70 65 
60 63 66 65 61 60 63 65 63 
63 62 60 61 65 69 71 68 65 
66 68 66 61 60 62 65 62 61 
64 68 69 68 67 68 67 64 62 
53 50 46 57 56 62 64 70 67 
76 70 78 74 83 79 86 51 49 
50 52 47 55 57 58 67 78 80 
80 87 82 81 88 87 57 51 61 
55 56 58 76 77 82 79 82 72 
69 72 68 63 77 82 80 81 80 
68 67 71 80 79 76 80 75 81 
59 64 58 59 66 73 67 68 75 
66 70 57 56 57 60 65 65 67 
63 62 56 57 63 61 61 63 65 
67 70 61 54 56 56 60 61 62 
66 61 69 74 64 67 61 54 51 
62 62 63 54 61 60 69 65 75 
83 65 65 56 53 61 60 51 59 
57 77 70 77 81 78 71 68 75 
72 76 86 74 65 54 54 55 55 
51 59 75 78 71 75 67 72 72 
70 72 74 63 54 57 60 59 59 
65 75 79 78 72 75 74 69 66 
70 65 64 59 62 68 71 68 68 
73 78 78 74 72 70 71 62 60 
65 67 65 63 65 71 72 71 70 
70 77 79 77 72 68 58 58 61 
64 65 63 66 69 70 73 73 74 
80 83 79 73 69 57 56 61 63 
65 63 65 70 71 73 77 80 82 
85 82 75 56 55 64 69 68 67 
64 61 64 73 74 73 77 78 78 
78 77 76 55 54 62 66 64 62 
62 63 62 59 60 69 75 72 71 
71 72 70 73 53 52 59 61 60 
59 63 65 62 59 59 62 66 67 
66 66 63 60 59 60 60 59 55 
59 69 70 67 64 69 74 74 53 
58 63 67 67 64 65 66 65 60 
52 53 65 68 65 65 64 60 61 
64 64 61 57 59 62 67 65 65 
72 78 67 64 70 69 66 64 64 
68 68 59 59 71 71 64 64 66 
63 64 69 70 64 61 60 62 65 
67 66 65 61 64 65 65 65 67 
72 72 68 69 76 76 66 63 67 
67 64 70 74 67 65 68 68 65 
66 60 60 62 65 69 75 77 75 
72 73 75 80 73 65 69 70 62 
60 63 60 62 67 70 60 61 67 
65 74 83 82 78 73 70 73 79 
81 74 72 71 63 54 53 55 77 
86 87 83 79 74 72 73 73 69 
75 78 76 80 80 51 54 53 55 
62 56 57 63 58 69 71 72 75 
75 82 78 92 85 96 94 97 51 
54 53 49 49 90 94 94 96 96 
97 95 53 55 61 51 89 93 98 
97 99 69 69 76 58 86 91 99 
97 90 98 92 77 81 85 73 85 
90 83 81 71 70 80 82 76 81 
71 81 73 66 66 74 65 66 70 
66 67 67 67 67 65 62 72 83 
84 66 65 63 65 67 68 68 68 
69 65 70 75 68 79 87 85 70 
62 59 64 65 68 71 71 72 73 
77 76 79 73 73 77 67 61 64 
70 74 77 75 77 79 76 69 67 
73 63 66 79 81 69 68 77 75 
68 68 68 72 69 77 75 66 62 
63 62 72 70 67 67 68 74 68 
68 73 73 68 70 71 69 72 72 
71 69 70 73 72 75 74 73 76 
80 79 75 75 69 69 65 69 71 
72 76 84 85 81 78 64 64 65 
64 69 73 82 87 83 78 64 65 
63 61 71 66 68 75 82 84 76 
63 64 62 60 70 64 65 71 81 
85 80 62 62 61 57 71 64 64 
68 74 84 89 64 64 63 58 68 
65 65 70 79 83 87 68 65 68 
59 74 69 66 67 72 74 75 64 
60 67 57 52 67 76 75 73 69 
69 74 76 59 56 62 63 60 68 
65 67 71 74 73 71 73 58 54 
63 68 67 64 65 64 67 63 61 
63 71 75 73 59 55 62 61 60 
61 55 65 72 63 61 63 65 62 
62 67 55 51 55 55 55 58 61 
63 76 81 79 74 71 65 54 49 
48 52 60 66 64 59 63 68 66 
62 52 48 57 57 57 59 64 73 
84 89 86 83 79 76 75 76 75 
74 73 67 62 56 51 52 55 61 
61 61 63 70 52 54 57 58 58 
58 61 67 78 87 86 81 82 80 
74 72 72 73 72 68 69 64 55 
52 52 55 59 62 56 57 58 60 
60 59 59 66 78 82 74 76 78 
71 65 69 71 71 69 71 67 60 
54 60 63 61 62 58 55 60 65 
69 62 67 74 71 63 62 69 60 
60 62 60 58 58 66 66 66 75 
71 85 80 87 85 83 88 89 55 
54 54 69 72 66 76 66 78 86 
82 93 91 97 97 91 92 85 61 
60 62 55 57 94 86 91 97 93 
97 61 62 65 57 98 93 92 88 
87 94 85 94 71 70 75 63 97 
94 91 104 98 85 90 82 79 84 
78 85 91 89 76 93 90 93 86 
85 75 72 70 71 92 92 88 92 
91 90 89 90 85 82 82 81 83 
81 81 80 76 76 74 78 72 68 
72 72 73 75 65 72 65 69 70 
70 79 77 69 65 64 66 72 76 
67 77 78 73 66 68 75 65 74 
76 75 67 71 77 66 73 71 73 
72 72 75 68 78 68 65 67 72 
68 68 68 80 70 71 75 73 62 
63 63 77 76 67 77 79 65 67 
60 74 72 73 75 81 67 72 68 
66 69 78 78 74 72 81 85 62 
63 60 58 72 77 83 79 73 77 
59 63 59 55 70 70 68 70 77 
83 79 57 52 52 65 67 66 63 
61 69 49 51 48 51 70 63 63 
65 64 57 56 56 59 52 48 65 
69 69 66 63 63 65 66 67 62 
56 51 52 49 54 62 65 66 67 
65 63 62 70 71 70 67 60 56 
69 67 70 70 62 53 56 58 53 
58 63 67 64 65 71 68 72 68 
60 58 60 57 68 70 61 60 67 
67 67 70 73 67 59 59 60 58 
57 58 70 71 74 73 68 60 60 
61 63 63 60 53 51 56 62 66 
62 62 68 69 69 70 73 73 66 
63 63 76 79 76 73 66 68 66 
65 67 67 64 55 55 58 61 61 
62 66 70 69 78 76 75 77 81 
74 69 72 66 63 62 56 57 58 
60 75 70 64 59 65 65 62 73 
68 80 74 86 81 90 89 93 53 
52 57 58 56 73 70 66 68 90 
91 95 91 95 92 91 89 88 58 
60 63 54 90 88 98 93 99 98 
67 69 73 63 67 96 83 73 76 
79 66 78 79 79 75 84 85 92 
81 92 92 88 87 85 90 88 84 
83 87 86 83 82 84 79 82 83 
79 78 80 75 77 77 78 83 74 
66 65 67 81 85 63 67 65 69 
67 81 82 65 66 70 73 78 77 
70 79 69 68 70 73 71 67 76 
70 68 68 68 73 70 77 73 72 
71 71 76 67 85 82 76 81 81 
74 75 71 85 81 79 83 75 73 
87 89 82 86 68 67 77 84 90 
84 57 55 57 75 81 78 80 87 
52 54 55 59 67 78 79 80 56 
61 52 65 59 60 64 71 77 62 
63 56 65 71 69 65 61 65 59 
66 64 63 69 74 74 69 65 61 
70 71 64 65 64 61 62 68 74 
68 68 68 68 59 59 64 68 70 
63 59 59 76 85 76 69 67 70 
73 72 68 65 62 58 60 65 69 
68 69 88 95 81 73 75 62 67 
71 70 72 71 69 66 64 65 62 
57 64 96 100 94 85 84 83 85 
85 85 57 60 60 56 59 64 65 
67 72 74 74 69 63 64 103 104 
98 95 91 91 92 88 80 71 67 
62 61 64 65 62 66 72 71 65 
65 72 103 98 94 95 93 91 88 
82 74 71 68 67 71 71 70 74 
76 92 89 84 81 78 74 72 72 
75 67 67 63 70 69 74 71 84 
79 89 88 96 53 57 62 64 66 
64 62 61 57 93 94 88 91 86 
86 92 89 70 73 76 63 69 96 
74 80 80 67 79 83 85 82 86 
82 84 85 92 95 95 96 91 90 
83 92 84 86 88 87 93 87 92 
91 88 89 90 87 89 95 87 94 
87 96 91 81 83 90 83 80 62 
68 64 78 74 71 81 71 66 62 
63 71 64 74 78 71 65 66 73 
75 76 72 72 85 83 76 75 71 
72 77 88 93 88 84 73 79 76 
90 90 92 90 74 78 74 90 97 
100 90 73 71 75 87 86 100 106 
93 65 64 67 84 91 85 95 103 
56 59 53 81 85 89 91 91 57 
60 56 64 73 81 88 88 57 56 
63 64 64 68 79 88 52 61 57 
71 69 67 69 69 72 63 72 54 
62 72 68 66 66 71 73 84 65 
61 56 61 67 73 68 82 88 80 
77 67 66 66 60 54 55 62 84 
90 82 85 65 63 60 64 65 63 
64 63 58 87 89 86 87 97 75 
77 70 69 72 73 70 69 69 64 
89 92 90 98 104 77 73 79 75 
76 77 75 71 75 81 90 89 92 
100 106 105 98 78 75 82 87 83 
80 86 85 80 83 92 90 99 103 
103 95 89 87 82 76 77 79 74 
71 77 85 84 87 88 88 86 87 
91 94 86 96 92 85 85 85 76 
72 80 80 71 72 79 90 92 91 
87 82 82 83 78 73 76 83 80 
71 71 71 69 75 76 83 81 87 
86 90 58 60 65 61 58 55 53 
61 59 67 94 93 91 93 88 93 
75 76 76 67 70 82 79 84 91 
89 94 84 85 91 95 93 90 89 
89 88 86 90 93 91 91 87 83 
86 88 87 88 89 87 86 89 87 
91 90 96 98 101 108 107 110 103 
103 102 95 93 78 79 68 83 71 
71 68 61 70 67 67 66 76 77 
78 64 63 75 80 83 63 60 67 
68 77 80 66 76 84 85 82 77 
86 88 82 85 87 85 84 85 81 
84 77 75 93 89 87 69 72 100 
102 98 92 67 70 90 90 97 101 
62 65 88 88 88 96 60 60 87 
88 87 86 56 65 73 74 76 83 
88 71 80 68 70 75 71 72 83 
89 69 75 72 70 71 71 90 96 
56 66 73 76 78 78 97 96 61 
61 61 60 74 76 77 97 93 93 
83 82 76 70 65 61 61 61 64 
93 89 94 83 80 79 88 91 92 
86 79 73 71 87 85 88 88 91 
90 86 88 89 87 87 96 98 82 
81 84 85 86 88 88 89 95 97 
92 90 94 78 74 79 83 82 80 
82 71 86 97 94 87 87 88 93 
101 75 74 81 80 71 67 74 77 
77 78 78 75 74 81 87 81 77 
82 92 97 90 89 90 77 77 70 
67 65 65 70 71 73 76 75 73 
78 88 89 86 81 83 63 65 66 
70 74 75 73 75 86 91 64 67 
71 55 61 53 49 59 51 66 63 
68 73 78 82 92 88 98 95 72 
67 69 69 68 74 71 79 73 72 
87 85 91 81 97 96 101 92 96 
89 87 86 90 97 97 99 90 94 
92 88 87 88 88 88 85 87 87 
87 90 94 92 93 101 102 111 108 
108 106 95 89 80 68 68 70 72 
77 66 79 76 71 71 87 86 63 
65 86 88 89 69 70 79 82 85 
86 79 87 90 80 85 91 87 90 
84 89 89 84 86 84 84 83 83 
88 91 85 75 82 100 95 93 93 
77 80 102 95 98 97 72 70 96 
97 94 90 64 66 85 85 90 92 
67 72 76 63 77 85 94 88 86 
94 74 72 76 83 89 100 99 91 
69 70 71 70 77 97 99 98 80 
80 76 71 73 93 95 97 82 82 
80 80 79 90 90 94 62 63 62 
73 84 85 83 85 85 89 90 85 
79 73 69 69 71 72 79 83 80 
79 84 96 93 92 96 96 90 86 
83 74 75 70 74 78 102 96 100 
103 101 92 95 98 68 67 71 74 
92 95 99 99 101 109 110 67 65 
68 67 68 91 92 87 93 93 91 
95 99 67 71 69 66 62 68 74 
72 92 86 85 83 88 89 94 95 
93 72 69 68 65 64 68 73 70 
66 66 68 73 79 73 71 80 91 
91 87 89 89 85 87 63 63 70 
70 65 60 64 67 69 75 80 76 
71 75 87 99 96 66 72 76 79 
55 62 62 53 56 58 57 63 61 
67 64 71 66 75 70 79 74 89 
80 71 70 69 67 69 66 84 67 
82 77 84 84 96 94 101 98 99 
94 88 90 89 98 94 98 95 93 
88 89 85 86 83 84 88 87 88 
88 90 91 92 92 92 93 98 105 
103 91 96 85 75 70 70 69 80 
79 85 78 84 83 77 75 90 85 
69 73 84 83 80 80 90 84 84 
86 91 96 76 76 83 91 96 78 
73 91 95 82 82 78 88 92 94 
89 81 85 89 96 97 94 87 85 
84 101 98 99 99 78 78 88 94 
104 103 72 79 85 87 90 88 79 
88 85 85 87 87 84 86 83 88 
89 84 94 95 70 71 72 77 99 
102 77 75 79 75 100 102 78 77 
76 77 96 99 96 95 82 87 86 
86 82 81 91 90 89 76 80 82 
82 83 89 90 86 86 94 93 91 
85 77 81 90 91 80 81 79 95 
96 99 103 98 98 94 85 77 81 
83 72 72 103 110 116 113 103 101 
101 78 79 69 65 92 99 106 109 
118 119 75 69 70 65 68 94 101 
95 89 91 100 107 67 63 67 73 
77 73 90 94 92 89 94 95 101 
93 65 72 81 88 82 79 68 62 
64 64 60 82 73 71 77 93 101 
95 95 97 96 95 87 76 63 62 
63 63 62 56 58 69 75 79 80 
76 73 74 85 104 108 102 63 53 
51 62 70 73 76 77 74 73 61 
65 61 62 67 63 65 65 63 69 
68 74 76 76 73 72 76 75 67 
71 64 74 84 92 68 77 83 90 
89 90 95 94 95 101 101 101 100 
91 92 87 89 87 90 95 93 86 
83 82 81 79 80 77 80 86 85 
88 92 92 93 93 95 102 97 98 
100 95 89 89 79 74 71 84 89 
89 88 86 85 83 80 79 83 90 
77 80 91 98 89 85 97 91 100 
102 109 76 88 105 114 72 79 107 
113 79 75 72 105 109 81 81 98 
103 89 86 82 93 97 100 100 92 
87 91 103 106 102 99 83 88 88 
87 99 105 85 89 84 86 87 86 
91 88 83 83 91 87 91 71 70 
76 87 101 101 78 71 67 68 104 
101 74 76 81 70 98 96 96 85 
83 74 71 94 97 86 91 88 85 
85 81 89 94 91 89 81 88 99 
101 91 87 84 86 89 84 103 103 
101 94 85 84 95 100 84 85 80 
85 115 109 104 106 106 107 103 96 
72 70 81 118 120 119 115 110 109 
67 70 66 72 91 102 107 109 118 
123 122 68 71 63 62 100 100 95 
100 103 104 107 72 72 71 65 59 
67 80 97 99 98 97 96 98 98 
101 70 69 72 71 68 64 72 84 
81 67 62 79 94 105 107 104 100 
99 96 94 70 72 72 69 75 80 
72 63 60 61 64 57 48 53 66 
69 70 76 76 75 76 78 96 105 
106 64 63 53 49 58 62 63 69 
74 73 75 75 81 78 70 68 76 
77 65 68 68 71 68 65 71 80 
81 83 80 96 91 96 85 96 92 
97 94 100 98 98 92 92 93 88 
90 87 89 87 95 89 97 84 81 
79 77 77 77 84 90 92 100 96 
94 96 94 91 92 93 91 91 87 
77 74 71 79 85 84 87 83 84 
83 89 81 82 81 98 96 80 87 
104 107 107 98 106 116 91 97 119 
122 125 85 93 120 123 76 79 117 
120 83 82 114 117 84 83 107 106 
96 91 86 97 99 99 99 100 89 
90 91 97 101 100 89 92 85 83 
86 96 91 92 85 83 82 85 89 
81 85 85 95 92 91 67 68 76 
95 92 80 79 76 67 96 99 104 
68 65 72 101 101 84 82 76 68 
93 95 88 92 89 83 80 80 79 
88 85 86 90 99 102 94 84 76 
81 81 76 110 112 110 101 91 86 
91 99 72 71 67 75 114 113 113 
116 115 109 101 70 72 108 113 119 
116 115 114 72 102 103 105 105 106 
110 73 97 97 98 100 100 102 103 
69 104 100 96 92 93 94 94 95 
66 68 69 75 75 67 71 72 66 
79 86 96 101 101 104 98 94 93 
63 64 72 76 71 64 65 67 63 
64 63 57 64 51 52 57 57 61 
73 73 72 78 82 87 93 96 56 
52 54 53 57 68 75 71 76 70 
72 72 73 74 73 78 70 75 71 
73 78 81 81 72 83 84 87 81 
83 79 92 92 94 88 91 96 95 
95 95 91 92 92 91 92 97 93 
95 93 86 88 90 95 96 93 82 
79 81 79 82 87 86 95 107 103 
112 104 95 91 93 90 92 91 86 
77 83 82 75 78 78 81 80 83 
82 84 84 81 100 83 90 113 111 
99 109 110 113 118 121 103 105 126 
91 96 123 86 92 116 86 86 85 
110 84 85 106 88 86 84 101 101 
99 91 93 99 98 99 89 95 92 
82 82 88 97 92 93 81 84 86 
81 96 95 83 83 82 95 68 73 
81 95 94 98 78 75 70 102 65 
66 75 94 97 90 71 62 60 85 
84 81 75 71 74 70 82 80 79 
84 98 90 79 74 71 76 75 89 
91 99 104 98 87 112 114 114 111 
104 96 100 101 109 113 115 111 109 
108 106 101 95 100 105 108 104 94 
93 98 92 81 87 93 91 89 90 
91 89 90 90 85 101 100 96 94 
95 89 87 92 94 65 65 74 76 
69 63 65 67 66 66 81 84 87 
90 91 97 95 96 102 70 71 68 
75 74 67 67 72 70 67 67 63 
57 56 55 59 70 66 79 78 73 
74 80 85 86 87 77 80 75 81 
83 76 77 81 73 75 84 80 77 
83 88 85 89 82 84 94 90 92 
90 93 92 91 89 88 91 96 96 
94 89 90 95 90 84 86 87 85 
92 88 85 89 93 93 104 106 115 
106 96 99 95 89 85 85 80 87 
80 83 80 80 77 79 76 79 82 
84 76 83 74 85 97 85 90 85 
91 112 105 102 107 111 115 117 100 
103 122 119 98 100 123 118 97 99 
118 111 88 90 112 104 87 91 105 
100 84 83 103 102 94 88 83 102 
98 100 100 97 97 81 86 97 102 
96 86 85 81 79 95 81 80 85 
95 96 94 70 71 77 98 71 68 
68 97 97 91 69 70 69 84 84 
83 57 59 62 79 84 81 69 69 
62 60 79 82 79 73 70 67 66 
66 74 96 89 77 72 69 102 103 
103 99 96 86 98 101 107 107 105 
108 102 95 95 89 92 102 109 81 
85 89 89 86 87 87 88 85 80 
79 85 89 97 94 92 96 94 91 
91 80 93 94 94 95 101 102 98 
97 97 74 73 71 74 72 72 73 
76 71 69 69 65 61 58 57 77 
72 78 83 85 85 92 97 100 96 
76 75 75 75 74 75 76 78 75 
69 72 72 70 63 59 65 75 78 
73 77 80 83 81 93 85 89 81 
87 91 82 82 80 80 83 82 81 
74 77 88 85 88 86 88 80 87 
90 89 92 88 96 90 87 94 97 
98 96 91 94 88 92 90 91 89 
88 87 88 94 94 93 96 96 109 
116 108 113 102 95 90 92 85 78 
79 78 80 77 75 73 74 80 85 
83 87 87 76 85 85 82 93 110 
99 106 106 107 111 99 113 98 113 
96 100 100 92 95 86 90 100 82 
85 102 85 81 103 98 95 91 104 
89 97 103 101 103 107 105 84 81 
78 88 99 99 78 77 83 83 93 
73 77 76 94 90 88 66 66 71 
82 66 64 64 85 89 63 65 62 
88 86 60 64 68 85 81 64 62 
65 64 70 69 67 64 97 89 77 
72 70 109 110 104 100 91 83 98 
103 104 110 107 86 85 91 96 101 
76 85 91 88 87 93 94 94 88 
81 84 87 90 99 104 105 103 100 
97 96 98 88 84 99 104 107 100 
104 109 107 101 76 75 74 79 76 
76 78 79 79 74 73 77 75 69 
63 65 69 71 77 75 76 82 80 
80 86 94 105 112 74 75 72 77 
72 76 76 77 82 80 78 89 78 
84 84 81 85 90 92 92 98 85 
91 94 98 91 82 79 80 79 81 
82 84 86 89 90 97 85 94 91 
87 89 96 95 94 89 90 91 89 
88 93 89 95 99 103 100 100 111 
116 111 113 103 95 94 92 84 78 
80 80 80 72 76 72 70 69 71 
75 80 86 84 76 82 85 86 86 
79 77 88 89 93 95 93 103 102 
101 96 98 102 104 103 96 108 103 
98 99 102 94 94 98 92 93 89 
94 99 84 88 101 103 87 103 103 
97 91 105 105 98 104 102 104 80 
80 87 97 98 76 78 84 92 96 
86 71 70 73 79 67 69 82 78 
80 61 64 88 87 84 72 66 85 
83 79 73 79 77 79 64 67 70 
68 70 77 77 77 75 75 97 93 
93 89 84 104 103 100 97 95 97 
104 103 101 101 90 95 105 103 109 
86 88 91 93 102 98 96 98 98 
95 86 88 89 108 104 107 110 105 
100 98 99 103 104 78 78 78 78 
80 83 81 79 83 85 81 75 69 
94 101 109 113 112 108 108 105 74 
74 71 76 79 79 79 85 81 74 
76 78 76 75 77 84 82 81 93 
102 113 86 91 93 84 85 84 88 
92 97 102 94 94 101 81 81 82 
85 84 85 82 96 95 98 91 88 
95 88 93 91 95 93 93 92 90 
89 90 90 92 93 90 94 93 97 
100 106 105 104 108 109 109 111 112 
104 107 96 89 85 87 82 84 81 
86 84 74 77 70 71 80 77 84 
86 89 88 86 88 82 80 88 95 
88 86 84 102 90 91 96 102 99 
102 95 108 107 100 103 105 95 99 
97 97 91 104 89 88 107 89 88 
102 98 90 106 104 103 105 105 106 
81 81 87 99 104 99 82 87 81 
84 71 75 77 77 81 78 69 73 
76 77 78 86 63 66 70 82 75 
74 67 81 78 84 90 90 76 76 
80 87 93 86 98 98 83 85 85 
97 100 91 90 98 97 99 100 103 
102 101 99 102 108 111 109 106 104 
93 102 109 110 110 88 89 88 87 
93 104 100 99 100 105 110 104 90 
90 89 80 85 85 82 117 118 115 
113 109 103 98 101 106 116 115 74 
72 71 75 79 80 80 83 85 81 
84 86 84 81 82 83 81 85 77 
78 84 85 84 96 105 113 121 128 
123 113 107 72 72 81 79 83 84 
87 96 106 116 97 100 103 97 94 
84 86 85 88 90 99 106 106 99 
97 81 82 82 84 86 86 91 82 
97 100 98 90 91 95 94 92 90 
90 93 97 97 97 102 108 109 112 
112 113 111 111 107 97 87 93 85 
87 90 93 94 89 93 79 70 71 
68 76 86 82 91 92 88 92 93 
91 89 81 85 88 85 89 83 85 
100 95 99 104 106 94 100 113 96 
110 98 100 99 101 94 100 102 104 
90 107 108 86 87 107 103 96 88 
102 102 105 103 105 83 91 101 98 
83 87 84 90 97 89 77 80 80 
77 84 78 82 70 76 79 79 77 
84 74 77 78 79 98 101 80 78 
102 103 102 108 112 91 99 116 97 
99 97 100 102 101 101 102 108 108 
111 110 112 109 109 109 109 110 112 
90 100 107 109 98 90 91 92 94 
106 102 96 95 98 104 113 115 97 
90 71 71 74 82 85 84 84 86 
86 85 85 86 87 87 87 91 124 
132 131 123 115 106 98 96 94 100 
72 69 70 88 84 82 82 83 87 
95 107 119 132 134 126 110 113 107 
108 111 101 104 98 98 102 102 101 
101 98 87 91 90 90 90 94 88 
83 88 93 84 98 101 97 92 91 
99 90 92 91 98 94 97 101 103 
108 104 101 107 106 113 112 112 118 
117 116 119 110 105 99 100 95 87 
91 87 93 97 100 95 79 70 71 
67 77 84 79 86 83 96 90 98 
86 88 82 89 87 87 82 91 102 
96 101 107 105 112 94 102 116 120 
97 121 119 101 111 107 96 102 102 
103 93 108 112 87 90 113 108 96 
90 101 99 107 105 101 102 88 97 
103 104 105 87 88 90 98 102 96 
81 86 87 83 88 88 91 86 80 
83 78 78 84 77 84 82 84 79 
81 106 106 95 85 107 111 111 117 
125 116 120 133 130 106 115 119 107 
105 110 114 120 118 116 113 114 116 
119 110 111 113 116 117 108 105 104 
110 93 94 97 103 106 109 116 111 
95 86 91 97 71 79 86 91 90 
92 96 99 100 95 91 93 95 93 
119 113 105 99 98 95 95 107 111 
98 73 67 71 95 93 90 87 85 
83 84 83 87 95 106 121 131 134 
135 124 117 110 101 97 84 91 101 
119 133 108 111 101 114 114 110 100 
99 103 107 102 98 96 94 95 86 
91 85 95 87 93 99 100 92 94 
98 98 102 107 103 98 96 102 104 
113 110 113 111 114 113 117 120 123 
119 109 104 103 98 95 89 93 91 
91 89 99 92 72 82 75 68 69 
68 70 74 79 86 85 101 89 84 
87 103 86 83 92 81 81 94 90 
94 104 105 109 118 96 105 121 97 
114 102 102 98 104 106 94 92 96 
111 90 101 96 93 97 97 95 109 
106 97 98 93 99 107 103 102 90 
93 97 100 90 88 93 97 86 96 
98 92 78 92 103 80 79 83 94 
95 85 90 88 115 105 117 119 134 
121 129 136 139 124 136 131 115 120 
128 121 122 124 118 123 130 113 116 
124 125 102 100 105 111 100 102 102 
99 86 85 90 99 102 73 82 92 
97 94 98 107 112 111 104 98 105 
96 95 96 102 106 99 84 87 71 
67 74 100 97 93 91 90 88 91 
85 135 134 127 123 121 118 109 101 
99 98 98 87 83 83 88 99 117 
133 137 129 126 101 105 109 105 102 
103 102 111 114 114 110 102 98 101 
109 105 102 103 96 88 100 90 94 
99 99 95 100 98 111 106 105 102 
108 112 117 117 117 117 115 113 112 
115 122 120 111 111 99 95 95 93 
92 92 91 90 96 88 92 88 79 
82 71 69 72 72 75 82 90 79 
81 104 84 107 82 94 94 99 89 
100 97 100 105 106 103 110 109 106 
112 113 117 97 125 123 97 121 114 
104 104 103 108 106 100 107 111 95 
98 111 109 93 107 100 96 95 94 
111 107 93 94 92 103 104 108 112 
96 96 94 98 101 99 93 91 88 
103 99 79 84 80 102 111 84 107 
105 93 96 121 115 120 126 133 125 
138 142 134 143 137 125 133 133 127 
127 128 128 133 131 119 124 130 98 
98 102 112 101 98 94 92 95 99 
101 99 76 76 81 89 98 100 98 
103 117 124 116 112 116 102 100 94 
84 87 98 72 67 109 103 98 95 
94 93 91 126 128 123 111 109 107 
104 97 97 97 88 89 85 83 83 
88 96 113 129 134 128 124 128 129 
121 113 112 110 112 103 105 110 114 
115 110 103 98 100 107 110 108 108 
103 92 107 93 94 98 97 98 103 
96 113 110 110 107 117 120 122 122 
121 119 114 109 112 110 118 113 110 
95 90 88 86 89 87 90 92 96 
93 93 89 90 82 74 72 76 76 
78 84 91 79 79 79 103 81 81 
108 84 90 99 103 92 101 103 112 
106 119 110 112 119 102 118 99 112 
115 109 106 102 104 106 102 107 107 
97 99 109 104 94 97 96 103 101 
99 98 96 114 108 90 108 111 115 
94 90 95 98 104 101 102 95 97 
96 88 106 105 80 111 116 86 83 
96 110 111 100 120 119 116 121 126 
122 125 120 137 137 128 136 131 129 
133 132 131 127 129 133 128 131 133 
121 131 130 94 95 105 95 89 87 
88 103 104 99 93 78 75 82 86 
91 101 106 104 109 122 128 123 119 
86 91 100 109 69 114 108 99 93 
91 95 111 110 102 94 94 97 92 