# vtk DataFile Version 3.0
vtk output
ASCII
DATASET POLYDATA
POINTS 20090 float
36.2548 13.5737 -7.41865 35.7476 12.7885 -7.15814 35.3759 13.3553 -7.28803 
37.1769 13.4371 -7.41382 36.5234 12.6878 -7.1692 38.0165 13.429 -7.39084 
37.3914 12.6427 -7.16146 38.1537 12.7396 -7.16287 34.5118 14.4528 -7.39895 
33.8972 13.8129 -7.14909 33.5948 14.5427 -7.23366 35.4509 14.2307 -7.48663 
34.6388 13.5436 -7.22285 36.3623 14.4252 -7.60578 37.1328 14.2729 -7.60206 
37.999 14.219 -7.57526 38.6806 13.3068 -7.3008 38.8885 14.1402 -7.48532 
39.7622 14.289 -7.3933 39.375 13.4855 -7.24614 40.1009 13.7368 -7.17744 
34.251 15.3904 -7.49753 33.3767 15.2746 -7.31124 35.2113 15.1837 -7.60527 
36.13 15.1566 -7.68463 37.0651 15.1526 -7.72606 37.9326 15.0799 -7.71052 
38.7983 15.0212 -7.6485 39.6379 15.0209 -7.54485 40.4723 14.3465 -7.25617 
40.4349 15.0202 -7.39444 41.0588 14.8108 -7.19244 33.5556 16.1897 -7.45666 
32.7872 15.6238 -7.20768 32.6481 16.4163 -7.25334 34.4096 16.324 -7.62562 
35.1517 16.1105 -7.69291 36.0293 16.0355 -7.75476 36.9475 16.0074 -7.79036 
37.8658 15.9751 -7.78917 38.751 15.9206 -7.74164 39.6145 15.8742 -7.64272 
40.4533 15.8081 -7.48686 41.2377 15.6147 -7.27074 33.3549 17.1561 -7.48456 
32.5182 17.3379 -7.28335 34.2157 17.1101 -7.6435 35.1111 17.0616 -7.74948 
35.9718 16.961 -7.80195 36.876 16.9113 -7.82945 37.7964 16.8787 -7.82858 
38.7053 16.8371 -7.78884 39.5879 16.775 -7.69835 40.4452 16.6793 -7.5508 
41.2702 16.5097 -7.35062 33.2517 18.0901 -7.49471 32.4266 18.2636 -7.28478 
34.108 17.9999 -7.65549 35.0007 17.9481 -7.76399 35.9045 17.8906 -7.82393 
36.8115 17.8325 -7.84841 37.7331 17.7959 -7.84502 38.6503 17.7609 -7.8073 
39.5468 17.7009 -7.72319 40.4153 17.597 -7.58551 41.2521 17.4359 -7.40104 
33.1867 18.9903 -7.47457 32.3814 19.1755 -7.25571 34.0339 18.9012 -7.64162 
34.9168 18.8452 -7.75415 35.8189 18.799 -7.81772 36.7259 18.7428 -7.84484 
37.6503 18.703 -7.8409 38.5745 18.6809 -7.80258 39.4778 18.6345 -7.72284 
40.3593 18.5301 -7.59398 41.2065 18.3799 -7.42181 33.1487 19.8344 -7.41815 
32.3936 20.0597 -7.1912 33.9715 19.7854 -7.58633 34.8409 19.73 -7.70671 
35.7363 19.6968 -7.77561 36.6363 19.6492 -7.80683 37.5185 19.5686 -7.81073 
38.4551 19.5673 -7.77091 39.356 19.5672 -7.69223 40.2556 19.4529 -7.57503 
41.1283 19.3199 -7.41254 33.1 20.5374 -7.328 32.6507 20.8883 -7.13945 
33.8918 20.6561 -7.47015 34.7567 20.5796 -7.6071 35.6446 20.5682 -7.6827 
36.5484 20.5398 -7.71895 37.4375 20.4688 -7.72748 38.2235 20.3076 -7.7222 
39.1442 20.5265 -7.61535 40.0754 20.3412 -7.52292 40.9865 20.215 -7.37346 
33.376 21.282 -7.24476 34.0551 21.4762 -7.34385 34.5752 22.0665 -7.26823 
34.7136 21.3726 -7.46134 35.5344 21.4022 -7.53053 36.4268 21.3901 -7.57411 
37.3595 21.3323 -7.58809 38.3321 21.178 -7.57918 39.2509 21.411 -7.46004 
40.0093 21.254 -7.38895 40.7507 20.9877 -7.31655 35.337 22.1964 -7.31552 
36.2266 22.2066 -7.37179 37.152 22.1629 -7.39985 38.0819 22.0787 -7.39451 
38.887 21.9806 -7.36659 34.1991 11.4772 -6.40237 33.8319 10.8779 -6.02307 
33.4097 11.4577 -6.20721 35.2164 11.263 -6.47644 34.6638 10.6628 -6.08166 
36.2005 11.2563 -6.56229 35.6158 10.5968 -6.18574 37.2367 11.255 -6.57863 
36.6147 10.6007 -6.25589 38.2421 11.2807 -6.53358 37.5835 10.5741 -6.23195 
39.1987 11.3472 -6.4495 38.5605 10.5848 -6.1586 40.0576 11.4772 -6.36051 
39.4964 10.6754 -6.07082 40.3174 10.8976 -6.02491 33.2912 12.2678 -6.50901 
32.7668 11.7312 -6.13314 32.4449 12.3294 -6.27631 34.1569 12.2348 -6.71743 
34.8629 11.8899 -6.71196 35.7683 12.007 -6.86101 36.8288 11.9271 -6.87976 
37.9361 11.9943 -6.87151 39.0158 12.0452 -6.77065 39.9869 12.2005 -6.66379 
40.7458 11.4729 -6.20752 40.877 12.263 -6.49105 41.349 11.7604 -6.16639 
32.348 13.1664 -6.5303 31.8229 12.622 -6.15892 31.5262 13.2421 -6.26278 
33.115 13.0139 -6.72933 33.8799 12.9974 -6.91373 34.8743 12.6509 -6.99473 
38.8883 12.6815 -7.04524 39.9092 12.965 -6.95436 40.8705 13.0857 -6.769 
41.6511 12.3525 -6.31918 41.7427 13.1538 -6.56013 42.2495 12.6686 -6.24704 
31.4855 14.049 -6.47428 30.9347 13.6141 -6.13357 30.6189 14.3937 -6.20924 
32.2724 14.0236 -6.75065 33.0684 13.7674 -6.92426 40.9372 13.9506 -7.0068 
41.7762 14.0547 -6.79841 42.5366 13.2879 -6.36661 42.5983 14.0654 -6.56233 
43.145 13.6414 -6.26605 31.12 15.1117 -6.56682 30.3457 15.1642 -6.26725 
31.8596 14.7212 -6.76686 32.675 14.7396 -7.02826 41.8379 15.0831 -7.00363 
42.6219 14.9751 -6.75477 43.419 14.2533 -6.34274 43.3758 14.9229 -6.50911 
44.0209 14.7318 -6.23234 30.4936 16.0469 -6.47179 29.7925 15.6196 -6.10333 
29.702 16.4362 -6.18592 31.2661 16.0001 -6.76415 31.9895 15.586 -6.95351 
42.0312 16.2126 -7.11414 42.7524 15.9733 -6.87632 43.4928 15.7918 -6.6239 
44.2183 15.5191 -6.3222 30.3128 17.072 -6.51104 29.604 17.4021 -6.2425 
31.0584 16.8499 -6.77684 31.8536 16.6092 -7.02988 42.0575 17.2133 -7.18651 
42.8372 16.9914 -6.95887 43.6384 16.8164 -6.70876 44.3239 16.3726 -6.42766 
30.2293 18.0679 -6.5326 29.5082 18.3481 -6.24487 30.9537 17.8036 -6.79475 
31.7169 17.5534 -7.04777 42.0141 18.1772 -7.22651 42.804 17.9715 -7.01927 
43.5739 17.8193 -6.80329 44.4614 17.1339 -6.48166 44.3131 17.8094 -6.5827 
45.0037 17.7456 -6.34125 30.2118 19.0406 -6.5256 29.4864 19.2947 -6.22967 
30.9252 18.7912 -6.79101 31.6495 18.514 -7.04305 41.9512 19.1446 -7.22888 
42.7202 18.9068 -7.04543 43.5132 18.7594 -6.83955 44.2842 18.6938 -6.6158 
45.0607 18.5142 -6.35197 30.2529 19.9696 -6.49097 29.5318 20.2096 -6.19122 
30.9961 19.8053 -6.76035 31.6629 19.5151 -7.00621 41.8436 20.1023 -7.19419 
42.6616 19.8728 -7.01617 43.3414 19.5808 -6.86273 44.1154 19.6554 -6.63862 
44.9672 19.3823 -6.37669 30.3279 20.8138 -6.42795 29.6951 21.013 -6.1596 
31.0833 20.7634 -6.68046 31.8744 20.6534 -6.93562 41.6036 21.0626 -7.12685 
42.5525 20.7747 -6.95237 43.4535 20.5211 -6.74902 44.2673 20.5554 -6.51577 
44.8254 20.172 -6.37516 30.2738 21.4831 -6.30252 30.5436 22.0956 -6.26014 
31.0757 21.6456 -6.52877 31.9162 21.6395 -6.76609 32.8328 21.7479 -6.97969 
33.8524 22.1052 -7.12258 39.7989 22.1599 -7.21348 40.8379 21.8616 -7.12141 
41.6977 21.965 -6.93754 42.3312 21.5605 -6.88396 43.1456 21.5408 -6.68026 
44.0346 21.3033 -6.47155 31.132 22.4268 -6.37176 31.4459 23.0432 -6.29116 
31.8937 22.5094 -6.55992 32.7647 22.5623 -6.75355 33.7453 22.7657 -6.89634 
34.8228 22.8612 -7.04533 35.9189 22.9621 -7.12754 36.9112 22.9559 -7.172 
37.8724 22.8689 -7.18558 38.9176 22.7909 -7.1383 39.8043 22.9951 -6.98329 
40.5233 22.6561 -6.97697 41.3899 22.7656 -6.79222 42.4041 22.4091 -6.67607 
43.2237 22.4081 -6.47838 43.8045 22.0674 -6.39184 32.0391 23.3418 -6.36629 
32.4902 23.9687 -6.26823 32.7 23.3239 -6.52439 33.5574 23.474 -6.64609 
34.5962 23.649 -6.75527 35.6422 23.6591 -6.87443 36.6632 23.707 -6.92367 
37.6278 23.6616 -6.94524 38.4924 23.4973 -6.95974 39.4058 23.7149 -6.80267 
40.5034 23.4804 -6.73154 41.3847 23.5695 -6.5567 42.1511 23.3181 -6.47869 
42.9205 23.0483 -6.38205 33.2617 24.1853 -6.35541 34.1125 24.3075 -6.46088 
34.8697 24.4753 -6.5115 35.453 25.0433 -6.36191 35.5633 24.373 -6.62128 
36.4672 24.4345 -6.66258 37.4332 24.422 -6.68631 38.4524 24.284 -6.69709 
39.3618 24.4909 -6.54785 40.1627 24.3285 -6.49915 40.9611 24.1492 -6.438 
36.2311 25.1617 -6.37296 37.1491 25.1728 -6.40105 38.0865 25.1038 -6.41418 
38.9144 25.0046 -6.40212 36.1749 9.40799 -5.53246 35.863 8.80711 -5.1008 
35.3198 9.26013 -5.34332 37.1843 9.30461 -5.49877 36.6518 8.71304 -5.08363 
38.0996 9.32965 -5.46816 37.5412 8.6905 -5.06247 38.3171 8.78622 -5.07202 
32.972 10.3086 -5.42999 32.7453 9.77236 -5.01788 32.2644 10.3241 -5.19131 
33.9535 10.1824 -5.6391 33.5645 9.55239 -5.13298 35.1099 9.92353 -5.72484 
34.4677 9.40489 -5.2692 36.0594 10.0426 -5.91997 36.9394 9.93631 -5.89236 
37.913 9.92505 -5.85061 38.8483 9.25926 -5.32818 38.994 9.93233 -5.72426 
40.1652 10.2119 -5.65614 39.6517 9.43489 -5.28025 41.174 10.3468 -5.46679 
40.5357 9.56713 -5.14997 41.2985 9.75265 -5.06088 32.0414 11.0646 -5.51234 
31.6401 10.6078 -5.09585 31.2723 11.1749 -5.24722 32.9397 10.9934 -5.80766 
41.2147 11.0304 -5.83769 41.9303 10.3126 -5.21034 42.1998 11.0705 -5.53617 
43.1213 11.3252 -5.34258 42.8074 10.4473 -4.95979 43.5888 10.9119 -4.93185 
31.1059 11.9337 -5.54069 30.6676 11.4916 -5.12136 30.3364 12.0978 -5.25462 
31.9571 11.8457 -5.86977 42.1467 11.8855 -5.95169 43.0114 12.0369 -5.71165 
43.8622 11.4704 -5.13194 43.8507 12.1727 -5.45858 44.4116 11.8213 -5.06407 
30.2296 12.8728 -5.52756 29.7469 12.4609 -5.11282 29.4556 13.1051 -5.2276 
31.0518 12.7584 -5.87362 43.0399 12.8625 -6.03102 43.8584 12.9977 -5.7673 
44.6221 12.3873 -5.22953 44.5833 13.0267 -5.48704 45.1984 12.8284 -5.1286 
29.4733 13.8665 -5.50041 28.8626 13.5375 -5.0611 28.6148 14.287 -5.17015 
30.2641 13.6989 -5.84293 43.9529 13.8953 -6.02296 44.7568 13.9592 -5.70891 
45.3813 13.5277 -5.2929 29.0442 14.7815 -5.54241 28.3964 15.2158 -5.3004 
29.7455 14.7166 -5.88027 44.7922 15.0082 -5.97353 45.55 14.2364 -5.44335 
45.4966 14.9387 -5.65483 46.1177 14.7786 -5.32277 29.0249 15.784 -5.74998 
28.2518 15.9926 -5.38922 45.0271 16.1071 -6.10782 45.7176 15.9369 -5.77787 
46.3088 15.5036 -5.41151 28.3925 16.865 -5.59963 27.7665 16.5025 -5.21711 
27.6264 17.3344 -5.25765 29.0748 16.7842 -5.93708 45.122 17.0424 -6.21657 
45.7794 16.9877 -5.9297 46.5099 16.2302 -5.47724 46.4391 16.9206 -5.62773 
47.0717 16.8013 -5.30103 28.1899 17.9358 -5.60376 27.4853 18.2862 -5.26625 
28.8843 17.6702 -5.92952 45.745 18.0434 -6.05389 46.4802 17.8368 -5.71799 
47.1828 17.5908 -5.35511 28.1178 18.9557 -5.60514 27.4429 19.281 -5.27295 
28.7987 18.6427 -5.9297 45.7407 19.1258 -6.08479 46.4577 18.8103 -5.77994 
47.1752 18.5292 -5.43847 28.1561 19.9818 -5.59337 27.4659 20.2656 -5.25268 
28.8037 19.6555 -5.9112 45.5704 20.1448 -6.09433 46.3614 19.8163 -5.79586 
47.1099 19.4898 -5.47693 28.2283 20.9521 -5.53797 27.5314 21.2051 -5.19577 
28.9621 20.7748 -5.87349 44.9062 21.0727 -6.2188 45.5582 20.9797 -5.99575 
46.1855 20.8288 -5.7587 46.965 20.4194 -5.47566 28.3053 21.8293 -5.44302 
27.6939 22.0242 -5.14507 29.0213 21.8036 -5.72964 29.7765 21.8737 -6.01204 
[...]
CELL_DATA 40100
SCALARS scalars float
LOOKUP_TABLE default
137 141 136 138 136 137 124 124 123 
132 132 129 134 133 133 133 132 132 
133 137 133 139 123 129 123 129 129 
125 132 128 130 129 129 129 130 130 
137 136 135 134 131 126 125 129 123 
126 122 124 127 127 126 126 126 126 
129 128 134 138 140 134 124 125 122 
125 122 122 121 126 125 122 125 129 
125 131 133 135 135 132 138 134 122 
126 122 125 121 123 121 122 121 124 
124 124 128 131 134 133 135 133 132 
135 126 130 123 127 122 123 122 122 
123 124 124 123 130 128 133 132 131 
132 134 131 128 132 126 126 121 125 
120 120 122 121 124 122 126 128 128 
131 129 129 131 130 131 127 126 125 
119 122 124 119 120 124 121 124 127 
125 127 129 128 129 128 128 132 122 
124 121 119 119 119 128 123 127 123 
126 124 124 125 123 123 125 125 124 
121 119 118 120 123 122 123 123 122 
121 121 127 119 131 125 129 128 134 
134 146 144 148 148 149 124 123 119 
122 127 120 123 120 127 122 134 130 
143 141 147 142 148 144 144 143 124 
122 120 122 119 119 118 118 120 121 
120 123 121 124 126 131 136 132 140 
131 140 136 141 141 140 138 120 119 
118 122 118 120 119 119 118 117 117 
120 130 127 126 133 133 137 137 136 
145 136 136 135 118 122 118 117 118 
128 117 117 139 133 132 145 133 133 
137 134 134 133 117 115 116 125 115 
115 115 115 115 117 135 131 131 133 
132 132 140 132 117 124 117 126 130 
114 117 115 135 131 131 135 131 133 
138 130 123 126 122 126 120 116 114 
114 131 130 130 130 131 129 129 130 
129 128 123 131 124 129 116 119 112 
113 129 127 128 127 128 128 128 128 
141 128 126 133 128 132 116 115 118 
112 127 127 130 127 127 126 128 127 
140 127 127 125 123 124 117 119 119 
118 125 125 125 122 125 124 127 127 
127 127 123 123 122 118 117 116 117 
126 126 118 116 116 121 122 121 122 
121 128 121 120 130 128 125 125 119 
116 115 114 118 113 120 119 119 117 
116 118 117 119 118 119 119 120 119 
120 119 118 120 127 125 123 128 127 
126 126 124 123 119 113 113 112 113 
113 126 114 117 129 117 127 117 124 
118 123 121 119 126 124 128 122 120 
127 135 124 112 112 114 113 119 118 
115 121 123 121 119 116 116 115 118 
115 118 118 118 118 114 113 112 114 
112 115 114 115 128 136 126 150 139 
154 123 121 119 126 120 125 125 126 
135 126 138 134 145 142 138 146 142 
159 147 154 118 118 116 118 117 120 
120 118 124 121 120 124 124 132 131 
135 137 142 142 144 146 148 152 150 
148 154 151 147 124 117 117 125 116 
124 118 116 140 140 142 139 147 140 
146 145 144 143 122 121 120 125 115 
116 116 116 132 139 134 140 133 131 
142 141 130 140 120 120 118 118 115 
113 114 112 133 131 130 129 129 129 
143 140 113 113 113 112 112 112 129 
134 128 128 138 132 128 135 111 117 
115 110 110 111 128 127 127 127 138 
126 126 111 114 125 112 111 134 128 
127 126 126 125 125 125 121 123 109 
109 111 109 126 132 125 125 125 125 
126 125 121 122 120 115 115 129 129 
124 123 123 123 123 119 120 118 114 
111 133 126 121 121 123 123 123 119 
115 130 114 112 113 122 121 121 124 
121 123 120 120 112 112 111 110 110 
110 109 110 123 123 122 127 125 125 
121 121 111 110 110 109 109 109 111 
109 109 107 124 123 120 133 130 126 
126 122 107 107 107 106 125 114 111 
110 109 111 121 131 119 120 120 130 
130 129 128 127 113 111 106 106 124 
122 109 107 107 111 107 110 109 108 
117 116 115 118 117 115 119 115 126 
122 129 126 122 121 116 105 105 105 
121 133 106 117 107 110 107 107 106 
108 110 111 110 110 107 114 109 107 
114 105 114 114 118 119 116 125 117 
116 106 105 126 105 104 116 121 107 
106 111 107 104 105 105 105 106 104 
107 124 124 107 122 118 115 109 104 
111 103 116 114 120 110 112 109 110 
112 108 104 125 128 125 136 133 151 
140 149 143 155 121 120 118 118 116 
117 122 124 120 125 124 124 136 136 
141 136 140 145 145 146 145 144 142 
152 148 143 118 116 116 117 115 116 
116 115 116 117 120 115 136 138 139 
137 140 140 141 141 141 139 139 139 
124 118 114 120 114 113 113 115 137 
136 138 140 136 138 136 150 147 146 
121 114 114 112 111 111 111 112 136 
135 143 144 145 144 142 144 116 112 
120 107 109 120 110 108 133 133 140 
136 138 136 109 113 109 120 107 108 
133 132 135 134 134 131 118 117 113 
109 105 104 133 142 129 129 129 128 
129 133 114 112 110 107 105 109 128 
127 128 126 133 127 110 110 109 109 
107 104 107 107 125 124 124 126 128 
126 108 121 118 108 107 108 123 123 
127 125 124 132 120 120 120 110 105 
118 122 122 124 126 130 126 115 114 
110 113 107 110 119 121 121 126 124 
124 113 112 111 111 110 108 118 118 
118 118 123 122 110 110 110 107 105 
105 120 118 119 119 118 117 117 119 
107 106 105 105 104 104 104 105 119 
118 117 117 122 117 119 122 105 104 
104 104 104 104 104 104 119 118 117 
116 116 129 116 116 103 103 102 102 
103 102 103 103 103 103 117 117 116 
115 127 123 118 120 101 101 99 98 
111 107 102 101 101 102 114 114 114 
114 114 112 122 118 115 115 102 99 
99 98 118 108 103 101 118 102 101 
106 112 112 110 112 112 111 111 111 
111 111 111 112 106 100 102 104 101 
115 106 112 109 104 110 110 109 108 
113 108 122 108 121 107 120 106 106 
104 104 103 110 107 110 107 105 110 
110 110 108 102 123 118 121 110 111 
110 114 110 120 120 119 111 111 110 
107 106 105 107 106 105 117 122 116 
128 123 134 131 140 140 150 140 151 
143 144 120 119 118 116 115 115 122 
121 119 123 128 133 133 135 137 140 
140 139 140 139 145 143 140 138 137 
137 119 118 114 120 113 113 113 113 
115 114 135 135 135 132 135 141 137 
133 132 145 137 140 121 118 113 110 
108 119 111 110 132 130 131 133 148 
145 132 140 128 115 107 124 107 106 
105 108 128 131 126 140 133 135 133 
140 111 111 104 103 106 103 104 105 
138 136 150 146 139 154 114 116 105 
122 102 102 135 134 146 146 133 145 
119 109 109 107 102 107 128 128 130 
133 156 136 133 155 113 112 108 108 
107 105 102 103 129 127 132 132 134 
132 110 108 106 105 105 103 132 126 
144 132 107 107 105 104 103 102 126 
125 125 125 125 135 111 120 108 107 
123 127 122 124 133 127 117 116 110 
120 104 104 121 121 126 125 109 118 
120 109 105 104 120 120 124 122 114 
119 112 108 103 117 118 118 120 128 
115 109 108 105 104 116 117 118 116 
115 119 117 108 105 102 104 102 101 
115 115 117 117 114 118 101 101 101 
100 99 115 114 114 114 113 115 115 
100 99 109 98 98 97 97 97 113 
113 112 112 119 127 112 114 96 101 
96 97 97 96 96 96 111 111 111 
123 115 119 124 119 96 93 93 93 
95 95 96 95 100 104 110 118 109 
109 114 111 124 120 117 117 107 94 
102 110 102 100 99 111 105 98 102 
106 109 108 107 109 108 109 113 113 
111 109 109 111 111 107 102 105 98 
100 103 102 110 109 102 106 106 103 
102 103 110 103 116 105 115 105 114 
104 113 104 113 103 109 104 103 103 
109 106 105 106 108 107 118 115 125 
113 113 115 112 101 102 113 110 111 
113 109 113 109 110 109 109 110 109 
107 105 103 103 103 108 105 107 107 
110 106 110 107 110 104 111 103 108 
106 108 106 120 123 120 130 124 141 
132 143 138 142 141 139 139 140 117 
115 115 115 118 114 116 122 117 119 
124 133 131 138 137 137 139 138 136 
142 135 132 132 138 135 134 115 114 
113 114 111 113 112 111 113 114 131 
131 131 132 131 131 130 132 131 139 
112 110 109 106 105 105 107 103 131 
130 135 145 144 135 134 138 106 106 
103 119 102 103 117 102 132 150 145 
143 133 149 152 149 104 103 103 123 
102 102 134 130 140 140 160 157 144 
156 114 110 105 112 102 101 130 132 
136 143 147 137 137 141 114 108 104 
105 103 102 132 154 145 133 136 130 
105 110 101 101 102 101 129 137 130 
146 129 153 110 107 103 103 102 101 
136 136 135 134 107 110 107 102 134 
134 133 132 132 142 111 106 105 103 
103 101 131 131 131 130 140 137 109 
109 109 102 102 104 129 124 133 133 
114 109 102 109 102 101 124 123 129 
127 124 127 109 115 101 108 121 120 
123 122 127 124 111 116 102 109 120 
120 122 121 125 123 109 109 102 108 
107 100 120 119 119 119 117 122 108 
105 105 105 101 123 116 115 114 112 
117 111 105 105 104 104 101 112 112 
111 118 116 111 116 103 103 96 102 
102 93 113 111 110 112 112 110 100 
98 97 97 93 96 111 110 117 120 
113 116 94 99 93 93 96 97 111 
123 117 116 112 113 91 90 90 90 
92 105 104 92 99 95 108 108 106 
113 110 111 109 113 110 110 94 92 
93 106 101 99 97 94 94 96 94 
98 104 106 103 106 105 104 113 111 
107 110 90 112 110 95 93 112 105 
98 110 103 101 100 102 99 105 103 
108 102 102 103 102 101 103 101 101 
102 109 109 90 108 100 108 103 112 
108 100 97 116 105 99 115 108 114 
110 112 106 114 105 115 105 112 104 
103 102 102 102 101 106 101 100 100 
100 108 104 108 103 106 102 107 110 
111 111 111 109 112 111 109 106 105 
103 102 102 104 103 129 131 125 140 
139 147 144 141 139 142 115 115 115 
114 119 118 124 123 120 123 131 137 
131 129 131 133 136 136 133 132 142 
141 137 140 135 138 116 115 110 113 
113 110 105 111 112 113 130 131 134 
137 130 129 129 140 137 140 110 107 
107 110 102 102 110 102 129 129 131 
143 133 148 129 142 109 106 106 105 
101 101 129 146 137 142 133 151 143 
143 107 104 104 103 100 100 128 132 
142 151 161 159 141 157 113 107 105 
111 101 100 142 139 159 159 137 159 
109 108 105 108 99 99 136 154 145 
141 135 167 104 103 99 102 99 99 
132 136 138 135 108 99 99 106 101 
98 129 147 129 134 127 150 107 113 
100 105 98 99 147 142 151 149 147 
146 110 108 105 106 137 127 127 143 
143 141 114 108 107 103 103 101 133 
127 141 140 110 116 109 102 132 132 
140 139 128 138 115 117 108 109 125 
125 121 126 137 130 115 115 111 108 
120 120 131 130 113 113 106 110 122 
119 129 124 113 112 110 109 119 119 
119 118 123 121 110 114 107 108 115 
115 119 117 115 118 112 111 103 110 
110 103 111 114 111 110 113 112 110 
108 108 108 102 113 109 109 118 110 
108 117 113 109 97 101 106 97 112 
109 110 111 109 108 107 99 97 97 
90 94 109 108 118 116 115 114 96 
95 89 92 93 91 120 123 108 107 
107 113 112 115 91 95 94 91 90 
101 99 89 88 89 107 107 106 113 
116 113 109 114 102 100 98 106 96 
95 88 88 106 88 102 106 106 102 
103 111 106 106 109 109 102 109 114 
107 100 97 87 99 113 94 97 96 
101 100 99 99 99 99 98 100 109 
109 106 108 97 110 118 107 95 93 
101 92 110 99 120 105 99 109 101 
107 103 106 107 106 106 102 106 102 
106 101 103 100 99 102 106 104 99 
98 105 100 105 104 111 115 114 114 
114 107 111 100 112 101 109 105 109 
106 106 101 106 101 106 101 102 101 
102 101 138 143 133 134 117 127 121 
131 125 120 126 119 132 129 124 128 
131 132 131 129 136 134 141 131 131 
142 141 148 109 115 114 115 114 112 
111 115 119 113 117 119 140 129 138 
131 130 130 144 140 137 139 110 111 
108 108 109 108 111 105 126 127 126 
126 143 126 153 142 109 108 105 107 
101 101 133 136 142 142 131 154 138 
139 112 110 112 102 101 102 100 101 
135 135 136 141 132 136 135 149 111 
109 103 106 101 100 98 100 134 152 
164 163 142 150 108 107 106 102 99 
100 100 98 149 160 164 159 148 157 
107 104 96 97 98 95 134 155 155 
153 139 166 105 102 105 102 97 95 
139 144 148 142 142 142 111 102 101 
100 99 99 136 134 139 135 142 141 
112 111 99 97 140 145 145 143 140 
147 105 114 101 101 143 142 141 138 
112 111 108 105 103 102 147 141 148 
146 138 145 116 114 105 103 136 137 
135 132 144 144 115 114 106 106 130 
129 138 131 111 111 109 107 126 124 
128 126 111 110 106 107 123 122 126 
123 111 110 106 109 119 119 122 118 
114 112 106 110 117 118 118 117 117 
117 111 110 106 109 116 115 116 115 
112 116 107 106 105 105 106 104 114 
111 111 110 114 109 106 104 102 102 
96 112 108 107 114 116 109 108 112 
102 96 92 101 89 110 107 106 117 
116 116 99 99 97 95 89 92 109 
113 110 108 116 116 113 114 96 108 
93 91 89 94 107 107 106 111 106 
109 113 113 104 110 105 103 90 88 
96 88 111 112 108 106 105 108 106 
105 104 99 95 94 87 88 111 87 
90 87 103 103 103 111 121 117 104 
119 102 93 94 106 101 94 87 86 
109 84 102 93 101 99 98 99 98 
109 98 101 98 101 116 111 105 103 
99 103 91 89 103 87 101 99 108 
104 107 117 98 115 104 115 108 108 
106 104 105 102 104 101 109 101 113 
101 112 99 100 117 116 106 99 100 
111 111 108 116 112 109 112 99 107 
95 106 97 112 100 110 99 109 100 
108 101 114 109 111 110 105 103 100 
105 100 99 134 130 130 128 128 125 
127 128 139 137 146 144 143 148 148 
145 148 140 111 114 114 117 123 119 
119 120 118 118 122 121 134 136 130 
130 139 143 136 129 142 138 135 137 
135 148 111 109 109 114 110 108 108 
113 128 127 127 158 125 142 124 146 
125 156 111 110 108 106 104 105 125 
122 130 143 129 126 126 142 106 102 
112 112 102 100 100 104 138 142 132 
124 141 134 136 146 106 105 103 100 
110 99 98 103 141 141 135 141 132 
158 106 102 98 105 97 96 133 151 
150 149 144 146 102 101 100 104 95 
95 137 151 164 161 135 162 107 105 
102 103 135 144 169 167 160 165 109 
103 101 97 97 97 144 141 159 140 
115 114 102 98 96 96 139 138 137 
156 104 110 104 103 139 153 138 138 
137 145 115 112 106 101 141 138 137 
137 116 111 110 112 107 106 135 134 
135 135 134 143 110 108 105 107 133 
133 143 141 113 108 105 108 133 127 
138 134 107 104 105 104 127 127 129 
126 110 105 103 104 125 122 125 125 
115 113 103 104 120 120 122 121 117 
116 103 108 115 115 120 117 115 112 
103 109 113 113 114 114 113 115 108 
107 100 104 115 109 114 115 107 112 
100 100 106 100 114 121 110 113 110 
113 101 108 108 106 99 95 119 114 
117 118 101 98 94 96 96 91 113 
116 112 114 114 118 96 95 95 91 
91 89 96 87 109 111 110 114 108 
118 107 113 91 94 90 87 87 87 
87 86 114 107 106 111 117 126 112 
115 97 111 110 92 86 85 121 85 
110 102 102 112 101 110 124 115 88 
115 92 86 90 125 110 85 90 85 
109 113 110 106 105 105 100 100 92 
102 85 123 107 84 84 83 115 83 
83 83 107 100 99 103 97 110 99 
102 118 116 92 108 106 100 86 112 
98 82 81 97 99 107 108 116 111 
116 107 117 115 111 102 106 105 107 
106 106 105 100 103 99 109 98 106 
122 109 98 98 97 113 97 110 100 
90 112 107 109 117 110 108 99 107 
96 112 95 111 96 113 96 112 97 
119 101 117 106 111 107 108 105 133 
142 133 137 122 128 121 131 126 130 
123 120 127 124 120 132 128 134 127 
131 143 142 142 135 143 139 143 149 
114 113 112 119 119 114 114 112 142 
141 134 130 134 132 155 146 138 144 
118 110 110 112 108 106 104 107 129 
132 123 122 150 122 140 142 107 110 
108 108 104 104 138 140 130 137 136 
135 105 101 101 112 103 95 95 100 
130 138 132 130 130 134 105 109 104 
104 94 95 152 143 136 131 139 156 
104 102 100 102 95 94 129 140 134 
134 129 156 111 107 98 102 95 94 
135 146 132 142 133 153 102 109 104 
97 134 139 141 136 134 176 113 105 
103 98 96 96 168 138 171 170 114 
110 108 104 98 95 136 165 138 166 
164 156 111 111 110 102 136 136 135 
135 134 143 112 108 108 107 103 104 
134 133 138 135 110 116 107 106 107 
105 134 133 133 133 132 141 112 110 
102 105 135 132 139 135 110 104 101 
103 132 135 137 132 103 101 101 101 
132 131 131 127 105 101 100 103 127 
125 124 124 113 104 100 113 121 121 
124 124 115 108 100 114 118 120 124 
120 105 102 100 109 112 112 113 118 
118 119 101 100 97 105 111 109 113 
115 102 102 97 99 118 110 109 113 
112 112 99 98 97 98 98 94 116 
113 124 124 97 96 96 95 93 119 
115 123 111 123 121 120 104 96 112 
95 93 89 112 114 113 120 115 120 
111 100 89 88 88 86 112 112 111 
118 111 118 93 92 86 107 99 86 
109 106 125 120 106 112 110 123 88 
92 84 117 112 99 85 85 120 103 
106 113 113 101 107 105 123 105 84 
83 81 82 112 81 125 108 105 118 
107 101 98 97 120 118 81 81 111 
125 114 87 79 79 96 78 85 105 
118 109 104 102 101 97 97 111 97 
97 108 100 93 123 110 97 101 76 
85 111 114 116 81 118 95 117 111 
118 111 117 109 113 108 111 108 104 
102 105 104 102 100 102 99 100 126 
126 100 114 100 100 106 100 99 100 
109 103 110 119 117 106 112 99 112 
101 114 94 118 92 120 97 111 98 
115 101 120 110 109 108 128 125 127 
127 124 128 141 127 143 135 134 135 
134 143 118 119 121 130 123 129 119 
119 119 119 120 119 132 131 135 148 
132 130 142 129 149 140 133 140 119 
119 117 116 114 112 112 112 137 144 
127 126 123 127 152 141 109 108 108 
106 104 103 145 137 129 134 126 132 
103 113 103 103 102 101 131 128 128 
125 130 134 103 102 99 96 102 96 
96 99 129 145 129 128 125 135 107 
102 95 102 95 93 126 150 132 129 
128 130 110 100 98 107 96 92 157 
127 146 129 150 166 116 114 102 103 
97 95 126 133 132 147 132 154 107 
115 109 102 130 135 151 166 116 113 
108 113 100 98 166 139 135 168 118 
113 113 112 108 102 159 132 136 135 
133 167 120 115 111 114 132 133 132 
132 131 133 122 112 110 109 106 105 
132 131 133 132 112 115 108 106 131 
131 131 131 108 104 104 104 131 137 
131 134 105 105 104 104 100 99 139 
130 131 136 105 105 104 103 99 99 
132 129 133 130 105 105 102 104 99 
101 129 126 130 126 104 107 102 103 
99 112 131 125 124 123 107 107 104 
103 98 113 122 121 123 120 104 104 
103 103 98 102 116 118 114 116 113 
119 103 102 102 101 98 102 112 112 
113 113 102 101 101 100 95 99 116 
116 110 113 111 114 107 100 94 99 
115 116 127 132 99 109 109 99 94 
94 114 111 110 128 127 124 97 94 
94 93 93 90 118 113 111 123 109 
115 91 91 91 91 88 87 84 85 
117 115 110 114 109 111 98 106 95 
106 83 82 117 130 104 116 104 107 
112 96 94 92 82 82 117 81 106 
128 95 109 102 99 89 120 105 82 
86 124 112 87 113 122 110 101 99 
100 100 97 82 91 104 95 118 81 
79 91 99 98 97 119 125 116 114 
111 105 103 90 85 126 105 79 107 
125 109 106 107 99 111 103 101 119 
116 107 119 112 109 99 105 104 97 
109 103 122 121 115 101 106 112 87 
86 83 113 82 110 81 118 110 112 
116 115 109 114 109 111 105 104 104 
102 99 101 118 118 130 105 102 100 
120 100 111 104 93 119 112 124 115 
124 120 99 96 89 98 92 102 95 
110 92 94 94 132 127 123 122 125 
122 123 128 127 126 132 127 141 136 
141 143 138 134 142 135 138 140 120 
119 119 118 122 120 117 119 133 146 
132 131 129 129 141 138 136 134 114 
122 113 112 111 110 128 144 121 121 
137 121 121 135 109 108 103 109 120 
103 121 132 130 124 129 121 123 129 
100 96 101 102 102 100 99 100 123 
121 121 121 122 133 99 93 95 98 
94 95 141 120 133 127 127 144 110 
109 100 104 99 98 129 142 128 127 
127 135 113 118 106 109 99 92 125 
156 152 129 126 138 107 104 110 100 
167 151 132 143 112 110 110 108 137 
156 129 159 118 118 111 110 109 107 
132 155 153 150 132 160 122 120 117 
116 114 110 159 131 129 139 131 136 
124 117 110 112 129 129 135 129 116 
115 114 111 108 106 129 129 128 140 
108 106 104 104 129 129 130 128 106 
104 104 104 103 102 128 128 128 128 
127 128 104 104 102 100 103 99 144 
127 126 139 103 103 101 100 139 133 
126 134 105 104 100 100 133 125 128 
125 106 103 101 101 131 123 125 124 
102 106 100 106 123 122 120 122 107 
106 100 101 116 115 119 124 103 102 
99 101 113 110 119 114 100 99 98 
97 101 97 121 118 117 112 112 118 
99 96 95 95 94 107 121 117 125 
131 95 95 95 93 94 93 101 93 
123 119 112 128 123 121 91 93 91 
91 89 88 121 111 108 121 106 119 
95 107 98 94 88 87 122 122 118 
114 104 105 107 111 97 100 86 83 
121 128 119 115 113 109 93 91 115 
101 81 80 122 133 122 114 98 103 
91 87 83 81 81 112 126 116 110 
98 97 97 94 94 79 94 85 81 
116 101 78 81 111 115 114 115 105 
104 92 89 87 106 79 85 123 119 
113 83 107 91 124 119 119 120 119 
117 102 116 109 106 120 99 88 86 
80 123 117 78 78 107 114 78 111 
111 111 111 111 108 103 104 106 103 
100 100 113 78 92 77 76 105 113 
97 124 92 84 121 77 125 119 123 
117 120 111 118 109 117 105 105 95 
105 98 123 98 101 119 103 113 103 
118 125 88 128 105 131 109 129 107 
124 110 123 119 129 127 125 130 128 
134 130 140 136 139 139 137 148 134 
134 136 133 144 139 136 132 123 121 
117 123 117 117 113 116 130 139 130 
127 127 121 138 120 132 137 123 116 
116 122 115 113 111 110 118 122 117 
115 132 131 125 129 108 99 107 111 
109 104 104 107 115 128 117 113 129 
127 104 101 104 105 102 101 101 98 
132 121 137 120 120 131 104 101 99 
97 97 96 120 138 125 119 122 125 
112 107 107 104 104 97 135 124 125 
124 121 145 116 111 105 105 144 151 
127 137 129 135 118 115 113 103 126 
153 152 149 144 150 127 124 116 116 
109 108 129 157 160 162 156 157 119 
115 115 114 114 107 142 132 129 150 
145 144 126 125 118 117 114 111 128 
138 127 129 136 134 121 119 119 116 
113 112 127 127 133 126 111 116 108 
110 106 109 126 129 126 131 130 132 
124 107 106 105 104 103 130 129 128 
128 107 119 106 102 102 101 126 126 
128 126 113 112 102 102 134 125 125 
131 124 110 110 108 101 101 135 125 
131 128 112 124 110 108 101 100 126 
125 127 126 109 122 107 105 99 107 
126 125 121 124 103 118 103 100 99 