# vtk DataFile Version 4.2
vtk output
ASCII
DATASET POLYDATA
POINTS 9 float
-33.0948 0.931962 27.237 -28.7266 17.5309 7.04538 36.2739 23.3437 29.8137 
33.4501 4.08217 50.6803 32.0934 -24.7695 57.814 5.2689 -36.1878 5.57338 
17.3895 -23.0586 -8.37803 45.904 -14.4257 8.42317 27.7941 -34.3638 28.987 

VERTICES 9 18
1 0 
1 1 
1 2 
1 3 
1 4 
1 5 
1 6 
1 7 
1 8 

POINT_DATA 9
FIELD FieldData 1
seed_label 1 9 double
0 1 2 3 4 5 6 7 8 

