# vtk DataFile Version 4.2
vtk output
ASCII
DATASET POLYDATA
POINTS 19738 float
0.389457 -0.214031 0 0.392942 -0.205423 0 0.389924 -0.208067 0 
0.392146 -0.215477 0 0.394783 -0.207422 0 0.394834 -0.216925 0 
0.397479 -0.208902 0 0.397521 -0.218377 0 0.400381 -0.210462 0 
0.400203 -0.219837 0 0.403287 -0.212231 0 0.402878 -0.221313 0 
0.405937 -0.214603 0 0.407315 -0.218478 0 0.38408 -0.21114 0 
0.386629 -0.204287 0 0.384041 -0.206551 0 0.386769 -0.212586 0 
0.388289 -0.206124 0 0.386206 -0.218167 0 0.387859 -0.220124 0 
0.389915 -0.221867 0 0.392253 -0.223384 0 0.394773 -0.224792 0 
0.397459 -0.226211 0 0.405544 -0.22281 0 0.400455 -0.227402 0 
0.403859 -0.228155 0 0.381393 -0.209693 0 0.382108 -0.205522 0 
0.378709 -0.208238 0 0.381122 -0.214144 0 0.382479 -0.216362 0 
0.38292 -0.219994 0 0.383598 -0.223359 0 0.385131 -0.225546 0 
0.386993 -0.227368 0 0.3891 -0.22902 0 0.391402 -0.230691 0 
0.394125 -0.232382 0 0.39943 -0.231969 0 0.376468 -0.212651 0 
0.374587 -0.210466 0 0.377506 -0.215644 0 0.378063 -0.219108 0 
0.378654 -0.222339 0 0.379166 -0.225587 0 0.380056 -0.228336 0 
0.381392 -0.230545 0 0.382953 -0.232526 0 0.384646 -0.234472 0 
0.386476 -0.236414 0 0.394296 -0.235565 0 0.388231 -0.238253 0 
0.390824 -0.239447 0 0.371376 -0.21488 0 0.370964 -0.211721 0 
0.37286 -0.217718 0 0.373435 -0.221039 0 0.373735 -0.224433 0 
0.374064 -0.227632 0 0.374537 -0.230548 0 0.375271 -0.233117 0 
0.376218 -0.235438 0 0.377241 -0.237695 0 0.378312 -0.239979 0 
0.37959 -0.242284 0 0.38426 -0.242854 0 0.366828 -0.214319 0 
0.368716 -0.210242 0 0.365202 -0.21123 0 0.366521 -0.217724 0 
0.367798 -0.219934 0 0.368248 -0.222954 0 0.368331 -0.226221 0 
0.368328 -0.229435 0 0.368397 -0.232443 0 0.368585 -0.235227 0 
0.368883 -0.237836 0 0.369208 -0.240377 0 0.369492 -0.242938 0 
0.369775 -0.245509 0 0.377079 -0.246084 0 0.369818 -0.248073 0 
0.37084 -0.250285 0 0.36179 -0.215444 0 0.360776 -0.21252 0 
0.362082 -0.218585 0 0.362169 -0.221758 0 0.362463 -0.224678 0 
0.362343 -0.227811 0 0.362019 -0.230978 0 0.36165 -0.234049 0 
0.361305 -0.236977 0 0.360973 -0.239799 0 0.360596 -0.242589 0 
0.360095 -0.24543 0 0.359454 -0.248382 0 0.358836 -0.251495 0 
0.362441 -0.253235 0 0.356545 -0.21674 0 0.355865 -0.213941 0 
0.356771 -0.219737 0 0.356595 -0.222879 0 0.35626 -0.226027 0 
0.355824 -0.229136 0 0.355165 -0.232267 0 0.354365 -0.235364 0 
0.353495 -0.238389 0 0.352563 -0.241362 0 0.351527 -0.244337 0 
0.350313 -0.247384 0 0.348871 -0.250556 0 0.347233 -0.253863 0 
0.353572 -0.255938 0 0.345431 -0.257149 0 0.344999 -0.260194 0 
0.350934 -0.217994 0 0.350475 -0.215343 0 0.350954 -0.220865 0 
0.350544 -0.223899 0 0.349825 -0.227018 0 0.348913 -0.230158 0 
0.347849 -0.23328 0 0.346613 -0.236388 0 0.34524 -0.239471 0 
0.34374 -0.242547 0 0.342093 -0.245653 0 0.340235 -0.248849 0 
0.338093 -0.252196 0 0.335579 -0.255776 0 0.332617 -0.25974 0 
0.335318 -0.26245 0 0.34495 -0.219084 0 0.344676 -0.216532 0 
0.344736 -0.221844 0 0.344064 -0.224768 0 0.343022 -0.227801 0 
0.341703 -0.230896 0 0.340189 -0.234005 0 0.338497 -0.237116 0 
0.33664 -0.240228 0 0.334615 -0.243362 0 0.332411 -0.24655 0 
0.329991 -0.249832 0 0.327297 -0.253256 0 0.324241 -0.256873 0 
0.320724 -0.260727 0 0.32522 -0.264423 0 0.315537 -0.265049 0 
0.315843 -0.268299 0 0.338694 -0.219916 0 0.338626 -0.217407 0 
0.338216 -0.222594 0 0.337256 -0.225419 0 0.335893 -0.228358 0 
0.334205 -0.231381 0 0.332268 -0.234448 0 0.330121 -0.237544 0 
0.327793 -0.240661 0 0.32529 -0.243817 0 0.322593 -0.247041 0 
0.31967 -0.250368 0 0.316514 -0.253819 0 0.313005 -0.257448 0 
0.309041 -0.261274 0 0.304388 -0.265313 0 0.306546 -0.269976 0 
0.298816 -0.269567 0 0.295458 -0.273654 0 0.332324 -0.220459 0 
0.332453 -0.217978 0 0.331529 -0.223072 0 0.330251 -0.225806 0 
0.328558 -0.228653 0 0.326513 -0.231594 0 0.324184 -0.234603 0 
0.321606 -0.237665 0 0.318825 -0.240767 0 0.315871 -0.243919 0 
0.312767 -0.247137 0 0.309417 -0.25047 0 0.305806 -0.253927 0 
0.302032 -0.257501 0 0.297743 -0.261306 0 0.292741 -0.265371 0 
0.28744 -0.269683 0 0.283533 -0.27431 0 0.32599 -0.220744 0 
0.326249 -0.218331 0 0.324782 -0.22327 0 0.32317 -0.225905 0 
0.321142 -0.228655 0 0.318751 -0.231512 0 0.316052 -0.234453 0 
0.313074 -0.237466 0 0.309862 -0.240539 0 0.30646 -0.243672 0 
0.302956 -0.246866 0 0.299395 -0.250142 0 0.295394 -0.253585 0 
0.291072 -0.257136 0 0.287145 -0.260714 0 0.281875 -0.264735 0 
0.275756 -0.269005 0 0.271039 -0.273725 0 0.319864 -0.22085 0 
0.320423 -0.218753 0 0.318024 -0.223191 0 0.316122 -0.225701 0 
0.31378 -0.228347 0 0.311064 -0.231113 0 0.308026 -0.233979 0 
0.304685 -0.236933 0 0.301077 -0.239963 0 0.297241 -0.243067 0 
0.293282 -0.246241 0 0.289368 -0.24948 0 0.285724 -0.252765 0 
0.280612 -0.256351 0 0.27548 -0.259914 0 0.27329 -0.263316 0 
0.264701 -0.267255 0 0.259278 -0.27228 0 0.315048 -0.220368 0 
0.308926 -0.220556 0 0.31139 -0.222646 0 0.309213 -0.225161 0 
0.306544 -0.227723 0 0.303532 -0.230398 0 0.300192 -0.233184 0 
0.296531 -0.23607 0 0.292576 -0.239043 0 0.288347 -0.242106 0 
0.283923 -0.24526 0 0.279457 -0.24851 0 0.275332 -0.25182 0 
0.272666 -0.254953 0 0.263919 -0.258517 0 0.26027 -0.26303 0 
0.251089 -0.26706 0 0.24947 -0.270486 0 0.304324 -0.222479 0 
0.301328 -0.221114 0 0.302304 -0.224468 0 0.299421 -0.226834 0 
0.296166 -0.229398 0 0.292575 -0.232101 0 0.288645 -0.234912 0 
0.284397 -0.23782 0 0.279844 -0.240824 0 0.275026 -0.243936 0 
0.270039 -0.247186 0 0.265137 -0.250631 0 0.260912 -0.254477 0 
0.251393 -0.25786 0 0.247856 -0.261316 0 0.24438 -0.265009 0 
0.296108 -0.223181 0 0.292561 -0.225584 0 0.288963 -0.22813 0 
0.285111 -0.230782 0 0.280932 -0.233531 0 0.276429 -0.236369 0 
0.271609 -0.239301 0 0.266491 -0.242342 0 0.26113 -0.245516 0 
0.255702 -0.248855 0 0.250624 -0.252344 0 0.246251 -0.255581 0 
0.400283 -0.185724 0 0.403322 -0.17478 0 0.399282 -0.180363 0 
0.403011 -0.188231 0 0.406084 -0.176215 0 0.405991 -0.190526 0 
0.408692 -0.179215 0 0.409298 -0.192536 0 0.411814 -0.181853 0 
0.412766 -0.194518 0 0.415554 -0.183228 0 0.415798 -0.197732 0 
0.419448 -0.184911 0 0.418191 -0.2017 0 0.422809 -0.187545 0 
0.424652 -0.191806 0 0.391977 -0.188365 0 0.393942 -0.179325 0 
0.390681 -0.184081 0 0.394964 -0.18967 0 0.396615 -0.17982 0 
0.396324 -0.193231 0 0.397355 -0.197254 0 0.400225 -0.199135 0 
0.403237 -0.201035 0 0.406431 -0.202924 0 0.409541 -0.205499 0 
0.411945 -0.210737 0 0.421343 -0.202634 0 0.414707 -0.21533 0 
0.416776 -0.219035 0 0.422479 -0.206905 0 0.423489 -0.211094 0 
0.387028 -0.191784 0 0.388443 -0.183452 0 0.385251 -0.188222 0 
0.388655 -0.194699 0 0.390101 -0.197688 0 0.392647 -0.199734 0 
0.408213 -0.224304 0 0.41085 -0.22586 0 0.419354 -0.220164 0 
0.413448 -0.227493 0 0.418807 -0.224892 0 0.38179 -0.195283 0 
0.382711 -0.188006 0 0.378984 -0.192496 0 0.383727 -0.197695 0 
0.38545 -0.200305 0 0.40465 -0.230947 0 0.406779 -0.232937 0 
0.416006 -0.229209 0 0.408763 -0.23544 0 0.413789 -0.2348 0 
0.376999 -0.200594 0 0.375512 -0.19605 0 0.38047 -0.202525 0 
0.397174 -0.236492 0 0.398671 -0.238323 0 0.399753 -0.240974 0 
0.408749 -0.239204 0 0.399881 -0.244595 0 0.405831 -0.243609 0 
0.372247 -0.200632 0 0.37304 -0.195 0 0.369924 -0.19744 0 
0.373343 -0.205326 0 0.376026 -0.206784 0 0.388827 -0.243346 0 
0.389414 -0.246219 0 0.388801 -0.250054 0 0.398163 -0.249059 0 
0.386999 -0.254883 0 0.393126 -0.254595 0 0.367987 -0.202396 0 
0.367322 -0.198841 0 0.370664 -0.203863 0 0.371855 -0.208012 0 
0.378456 -0.248113 0 0.378041 -0.251107 0 0.376877 -0.255007 0 
0.37432 -0.260091 0 0.383461 -0.260561 0 0.370494 -0.266334 0 
0.377119 -0.266567 0 0.365312 -0.200926 0 0.36548 -0.19767 0 
0.362639 -0.19945 0 0.365843 -0.204454 0 0.367918 -0.206669 0 
0.36591 -0.255095 0 0.364305 -0.25922 0 0.361369 -0.264313 0 
0.35696 -0.27064 0 0.365709 -0.272928 0 0.351306 -0.278315 0 
0.341605 -0.28767 0 0.358594 -0.280014 0 0.351536 -0.287077 0 
0.360953 -0.203222 0 0.358984 -0.201483 0 0.362549 -0.205456 0 
0.363928 -0.208275 0 0.353422 -0.258928 0 0.35118 -0.262846 0 
0.348043 -0.267722 0 0.343533 -0.273689 0 0.337711 -0.280777 0 
0.329898 -0.289159 0 0.338044 -0.29403 0 0.321812 -0.298632 0 
0.31128 -0.308691 0 0.330251 -0.30155 0 0.322192 -0.309298 0 
0.356293 -0.205305 0 0.35568 -0.202928 0 0.358274 -0.207258 0 
0.359664 -0.209722 0 0.337825 -0.265429 0 0.334321 -0.270376 0 
0.329628 -0.276072 0 0.323815 -0.282697 0 0.316645 -0.290344 0 
0.308482 -0.298985 0 0.299066 -0.308563 0 0.307077 -0.316127 0 
0.289998 -0.319171 0 0.278157 -0.330222 0 0.297994 -0.324684 0 
0.267971 -0.340014 0 0.288557 -0.334765 0 0.277482 -0.344232 0 
0.351779 -0.20531 0 0.353521 -0.202062 0 0.349921 -0.203178 0 
0.35191 -0.20779 0 0.35366 -0.209245 0 0.354912 -0.211395 0 
0.324223 -0.268023 0 0.320212 -0.272523 0 0.31518 -0.277867 0 
0.309459 -0.284034 0 0.302586 -0.291109 0 0.294679 -0.299049 0 
0.285882 -0.307771 0 0.276718 -0.317176 0 0.266743 -0.326954 0 
0.255869 -0.336996 0 0.261804 -0.348403 0 0.246224 -0.347128 0 
0.250327 -0.35504 0 0.346813 -0.206522 0 0.345484 -0.204496 0 
0.34759 -0.208715 0 0.348445 -0.210927 0 0.349634 -0.212973 0 
0.306582 -0.273609 0 0.300255 -0.278876 0 0.294708 -0.284704 0 
0.288042 -0.291327 0 0.28032 -0.298705 0 0.271819 -0.306747 0 
0.262811 -0.315348 0 0.253376 -0.324328 0 0.243599 -0.33354 0 
0.233397 -0.343095 0 0.236109 -0.35619 0 0.22279 -0.352791 0 
0.223252 -0.361922 0 0.341624 -0.207697 0 0.340526 -0.205741 0 
0.342421 -0.20979 0 0.343146 -0.211976 0 0.343963 -0.214205 0 
0.285036 -0.278813 0 0.279828 -0.284579 0 0.273312 -0.290906 0 
0.265694 -0.29784 0 0.257305 -0.305329 0 0.24847 -0.313288 0 
0.239265 -0.321625 0 0.229903 -0.330177 0 0.221163 -0.338714 0 
0.210681 -0.347588 0 0.209521 -0.361307 0 0.199686 -0.355962 0 
0.193783 -0.365075 0 0.336076 -0.208629 0 0.335237 -0.206606 0 
0.336678 -0.210734 0 0.337292 -0.212873 0 0.338033 -0.215068 0 
0.268019 -0.278721 0 0.264681 -0.283936 0 0.258551 -0.289909 0 
0.251057 -0.296428 0 0.2427 -0.303434 0 0.233916 -0.310844 0 
[...]
POINT_DATA 19738
FIELD FieldData 2
scalars 1 19738 double
68 61 64 71 62 78 67 84 78 
84 83 79 83 79 67 62 67 71 
62 77 78 80 83 83 78 76 75 
75 75 70 72 76 76 80 81 80 
78 80 74 74 75 73 64 77 80 
82 82 77 70 66 69 75 78 80 
80 74 66 78 80 80 79 73 62 
58 66 74 78 79 78 67 76 84 
83 80 74 73 71 64 59 63 68 
68 71 65 63 84 84 85 85 80 
72 66 68 70 60 60 63 62 60 
59 86 87 84 77 73 71 65 65 
70 65 64 70 67 63 58 59 59 
79 79 76 69 67 68 67 68 74 
75 72 72 69 66 68 67 71 67 
71 70 69 66 66 72 76 77 72 
64 63 69 76 77 80 79 64 63 
66 67 67 66 66 68 70 71 67 
61 63 69 75 76 74 74 64 61 
64 60 60 61 63 65 63 62 66 
66 62 63 66 70 73 73 65 62 
65 59 59 61 63 64 63 63 63 
61 61 62 63 66 70 73 67 64 
66 59 58 60 64 63 65 67 63 
58 61 63 63 62 65 69 67 66 
66 62 59 59 63 64 67 70 65 
60 63 66 65 61 60 63 65 63 
63 62 60 61 65 69 71 68 65 
66 68 66 61 60 62 65 62 61 
64 68 69 68 67 68 67 64 62 
53 50 46 57 56 62 64 70 67 
76 70 78 74 83 79 86 51 49 
50 52 47 55 57 58 67 78 80 
80 87 82 81 88 87 57 51 61 
55 56 58 76 77 82 79 82 72 
69 72 68 63 77 82 80 81 80 
68 67 71 80 79 76 80 75 81 
59 64 58 59 66 73 67 68 75 
66 70 57 56 57 60 65 65 67 
63 62 56 57 63 61 61 63 65 
67 70 61 54 56 56 60 61 62 
66 61 69 74 64 67 61 54 51 
62 62 63 54 61 60 69 65 75 
83 65 65 56 53 61 60 51 59 
57 77 70 77 81 78 71 68 75 
72 76 86 74 65 54 54 55 55 
51 59 75 78 71 75 67 72 72 
70 72 74 63 54 57 60 59 59 
65 75 79 78 72 75 74 69 66 
70 65 64 59 62 68 71 68 68 
73 78 78 74 72 70 71 62 60 
65 67 65 63 65 71 72 71 70 
70 77 79 77 72 68 58 58 61 
64 65 63 66 69 70 73 73 74 
80 83 79 73 69 57 56 61 63 
65 63 65 70 71 73 77 80 82 
85 82 75 56 55 64 69 68 67 
64 61 64 73 74 73 77 78 78 
78 77 76 55 54 62 66 64 62 
62 63 62 59 60 69 75 72 71 
71 72 70 73 53 52 59 61 60 
59 63 65 62 59 59 62 66 67 
66 66 63 60 59 60 60 59 55 
59 69 70 67 64 69 74 74 53 
58 63 67 67 64 65 66 65 60 
52 53 65 68 65 65 64 60 61 
64 64 61 57 59 62 67 65 65 
72 78 67 64 70 69 66 64 64 
68 68 59 59 71 71 64 64 66 
63 64 69 70 64 61 60 62 65 
67 66 65 61 64 65 65 65 67 
72 72 68 69 76 76 66 63 67 
67 64 70 74 67 65 68 68 65 
66 60 60 62 65 69 75 77 75 
72 73 75 80 73 65 69 70 62 
60 63 60 62 67 70 60 61 67 
65 74 83 82 78 73 70 73 79 
81 74 72 71 63 54 53 55 77 
86 87 83 79 74 72 73 73 69 
75 78 76 80 80 51 54 53 55 
62 56 57 63 58 69 71 72 75 
75 82 78 92 85 96 94 97 51 
54 53 49 49 90 94 94 96 96 
97 95 53 55 61 51 89 93 98 
97 99 69 69 76 58 86 91 99 
97 90 98 92 77 81 85 73 85 
90 83 81 71 70 80 82 76 81 
71 81 73 66 66 74 65 66 70 
66 67 67 67 67 65 62 72 83 
84 66 65 63 65 67 68 68 68 
69 65 70 75 68 79 87 85 70 
62 59 64 65 68 71 71 72 73 
77 76 79 73 73 77 67 61 64 
70 74 77 75 77 79 76 69 67 
73 63 66 79 81 69 68 77 75 
68 68 68 72 69 77 75 66 62 
63 62 72 70 67 67 68 74 68 
68 73 73 68 70 71 69 72 72 
71 69 70 73 72 75 74 73 76 
80 79 75 75 69 69 65 69 71 
72 76 84 85 81 78 64 64 65 
64 69 73 82 87 83 78 64 65 
63 61 71 66 68 75 82 84 76 
63 64 62 60 70 64 65 71 81 
85 80 62 62 61 57 71 64 64 
68 74 84 89 64 64 63 58 68 
65 65 70 79 83 87 68 65 68 
59 74 69 66 67 72 74 75 64 
60 67 57 52 67 76 75 73 69 
69 74 76 59 56 62 63 60 68 
65 67 71 74 73 71 73 58 54 
63 68 67 64 65 64 67 63 61 
63 71 75 73 59 55 62 61 60 
61 55 65 72 63 61 63 65 62 
62 67 55 51 55 55 55 58 61 
63 76 81 79 74 71 65 54 49 
48 52 60 66 64 59 63 68 66 
62 52 48 57 57 57 59 64 73 
84 89 86 83 79 76 75 76 75 
74 73 67 62 56 51 52 55 61 
61 61 63 70 52 54 57 58 58 
58 61 67 78 87 86 81 82 80 
74 72 72 73 72 68 69 64 55 
52 52 55 59 62 56 57 58 60 
60 59 59 66 78 82 74 76 78 
71 65 69 71 71 69 71 67 60 
54 60 63 61 62 58 55 60 65 
69 62 67 74 71 63 62 69 60 
60 62 60 58 58 66 66 66 75 
71 85 80 87 85 83 88 89 55 
54 54 69 72 66 76 66 78 86 
82 93 91 97 97 91 92 85 61 
60 62 55 57 94 86 91 97 93 
97 61 62 65 57 98 93 92 88 
87 94 85 94 71 70 75 63 97 
94 91 104 98 85 90 82 79 84 
78 85 91 89 76 93 90 93 86 
85 75 72 70 71 92 92 88 92 
91 90 89 90 85 82 82 81 83 
81 81 80 76 76 74 78 72 68 
72 72 73 75 65 72 65 69 70 
70 79 77 69 65 64 66 72 76 
67 77 78 73 66 68 75 65 74 
76 75 67 71 77 66 73 71 73 
72 72 75 68 78 68 65 67 72 
68 68 68 80 70 71 75 73 62 
63 63 77 76 67 77 79 65 67 
60 74 72 73 75 81 67 72 68 
66 69 78 78 74 72 81 85 62 
63 60 58 72 77 83 79 73 77 
59 63 59 55 70 70 68 70 77 
83 79 57 52 52 65 67 66 63 
61 69 49 51 48 51 70 63 63 
65 64 57 56 56 59 52 48 65 
69 69 66 63 63 65 66 67 62 
56 51 52 49 54 62 65 66 67 
65 63 62 70 71 70 67 60 56 
69 67 70 70 62 53 56 58 53 
58 63 67 64 65 71 68 72 68 
60 58 60 57 68 70 61 60 67 
67 67 70 73 67 59 59 60 58 
57 58 70 71 74 73 68 60 60 
61 63 63 60 53 51 56 62 66 
62 62 68 69 69 70 73 73 66 
63 63 76 79 76 73 66 68 66 
65 67 67 64 55 55 58 61 61 
62 66 70 69 78 76 75 77 81 
74 69 72 66 63 62 56 57 58 
60 75 70 64 59 65 65 62 73 
68 80 74 86 81 90 89 93 53 
52 57 58 56 73 70 66 68 90 
91 95 91 95 92 91 89 88 58 
60 63 54 90 88 98 93 99 98 
67 69 73 63 67 96 83 73 76 
79 66 78 79 79 75 84 85 92 
81 92 92 88 87 85 90 88 84 
83 87 86 83 82 84 79 82 83 
79 78 80 75 77 77 78 83 74 
66 65 67 81 85 63 67 65 69 
67 81 82 65 66 70 73 78 77 
70 79 69 68 70 73 71 67 76 
70 68 68 68 73 70 77 73 72 
71 71 76 67 85 82 76 81 81 
74 75 71 85 81 79 83 75 73 
87 89 82 86 68 67 77 84 90 
84 57 55 57 75 81 78 80 87 
52 54 55 59 67 78 79 80 56 
61 52 65 59 60 64 71 77 62 
63 56 65 71 69 65 61 65 59 
66 64 63 69 74 74 69 65 61 
70 71 64 65 64 61 62 68 74 
68 68 68 68 59 59 64 68 70 
63 59 59 76 85 76 69 67 70 
73 72 68 65 62 58 60 65 69 
68 69 88 95 81 73 75 62 67 
71 70 72 71 69 66 64 65 62 
57 64 96 100 94 85 84 83 85 
85 85 57 60 60 56 59 64 65 
67 72 74 74 69 63 64 103 104 
98 95 91 91 92 88 80 71 67 
62 61 64 65 62 66 72 71 65 
65 72 103 98 94 95 93 91 88 
82 74 71 68 67 71 71 70 74 
76 92 89 84 81 78 74 72 72 
75 67 67 63 70 69 74 71 84 
79 89 88 96 53 57 62 64 66 
64 62 61 57 93 94 88 91 86 
86 92 89 70 73 76 63 69 96 
74 80 80 67 79 83 85 82 86 
82 84 85 92 95 95 96 91 90 
83 92 84 86 88 87 93 87 92 
91 88 89 90 87 89 95 87 94 
87 96 91 81 83 90 83 80 62 
68 64 78 74 71 81 71 66 62 
63 71 64 74 78 71 65 66 73 
75 76 72 72 85 83 76 75 71 
72 77 88 93 88 84 73 79 76 
90 90 92 90 74 78 74 90 97 
100 90 73 71 75 87 86 100 106 
93 65 64 67 84 91 85 95 103 
56 59 53 81 85 89 91 91 57 
60 56 64 73 81 88 88 57 56 
63 64 64 68 79 88 52 61 57 
71 69 67 69 69 72 63 72 54 
62 72 68 66 66 71 73 84 65 
61 56 61 67 73 68 82 88 80 
77 67 66 66 60 54 55 62 84 
90 82 85 65 63 60 64 65 63 
64 63 58 87 89 86 87 97 75 
77 70 69 72 73 70 69 69 64 
89 92 90 98 104 77 73 79 75 
76 77 75 71 75 81 90 89 92 
100 106 105 98 78 75 82 87 83 
80 86 85 80 83 92 90 99 103 
103 95 89 87 82 76 77 79 74 
71 77 85 84 87 88 88 86 87 
91 94 86 96 92 85 85 85 76 
72 80 80 71 72 79 90 92 91 
87 82 82 83 78 73 76 83 80 
71 71 71 69 75 76 83 81 87 
86 90 58 60 65 61 58 55 53 
61 59 67 94 93 91 93 88 93 
75 76 76 67 70 82 79 84 91 
89 94 84 85 91 95 93 90 89 
89 88 86 90 93 91 91 87 83 
86 88 87 88 89 87 86 89 87 
91 90 96 98 101 108 107 110 103 
103 102 95 93 78 79 68 83 71 
71 68 61 70 67 67 66 76 77 
78 64 63 75 80 83 63 60 67 
68 77 80 66 76 84 85 82 77 
86 88 82 85 87 85 84 85 81 
84 77 75 93 89 87 69 72 100 
102 98 92 67 70 90 90 97 101 
62 65 88 88 88 96 60 60 87 
88 87 86 56 65 73 74 76 83 
88 71 80 68 70 75 71 72 83 
89 69 75 72 70 71 71 90 96 
56 66 73 76 78 78 97 96 61 
61 61 60 74 76 77 97 93 93 
83 82 76 70 65 61 61 61 64 
93 89 94 83 80 79 88 91 92 
86 79 73 71 87 85 88 88 91 
90 86 88 89 87 87 96 98 82 
81 84 85 86 88 88 89 95 97 
92 90 94 78 74 79 83 82 80 
82 71 86 97 94 87 87 88 93 
101 75 74 81 80 71 67 74 77 
77 78 78 75 74 81 87 81 77 
82 92 97 90 89 90 77 77 70 
67 65 65 70 71 73 76 75 73 
78 88 89 86 81 83 63 65 66 
70 74 75 73 75 86 91 64 67 
71 55 61 53 49 59 51 66 63 
68 73 78 82 92 88 98 95 72 
67 69 69 68 74 71 79 73 72 
87 85 91 81 97 96 101 92 96 
89 87 86 90 97 97 99 90 94 
92 88 87 88 88 88 85 87 87 
87 90 94 92 93 101 102 111 108 
108 106 95 89 80 68 68 70 72 
77 66 79 76 71 71 87 86 63 
65 86 88 89 69 70 79 82 85 
86 79 87 90 80 85 91 87 90 
84 89 89 84 86 84 84 83 83 
88 91 85 75 82 100 95 93 93 
77 80 102 95 98 97 72 70 96 
97 94 90 64 66 85 85 90 92 
67 72 76 63 77 85 94 88 86 
94 74 72 76 83 89 100 99 91 
69 70 71 70 77 97 99 98 80 
80 76 71 73 93 95 97 82 82 
80 80 79 90 90 94 62 63 62 
73 84 85 83 85 85 89 90 85 
79 73 69 69 71 72 79 83 80 
79 84 96 93 92 96 96 90 86 
83 74 75 70 74 78 102 96 100 
103 101 92 95 98 68 67 71 74 
92 95 99 99 101 109 110 67 65 
68 67 68 91 92 87 93 93 91 
95 99 67 71 69 66 62 68 74 
72 92 86 85 83 88 89 94 95 
93 72 69 68 65 64 68 73 70 
66 66 68 73 79 73 71 80 91 
91 87 89 89 85 87 63 63 70 
70 65 60 64 67 69 75 80 76 
71 75 87 99 96 66 72 76 79 
55 62 62 53 56 58 57 63 61 
67 64 71 66 75 70 79 74 89 
80 71 70 69 67 69 66 84 67 
82 77 84 84 96 94 101 98 99 
94 88 90 89 98 94 98 95 93 
88 89 85 86 83 84 88 87 88 
88 90 91 92 92 92 93 98 105 
103 91 96 85 75 70 70 69 80 
79 85 78 84 83 77 75 90 85 
69 73 84 83 80 80 90 84 84 
86 91 96 76 76 83 91 96 78 
73 91 95 82 82 78 88 92 94 
89 81 85 89 96 97 94 87 85 
84 101 98 99 99 78 78 88 94 
104 103 72 79 85 87 90 88 79 
88 85 85 87 87 84 86 83 88 
89 84 94 95 70 71 72 77 99 
102 77 75 79 75 100 102 78 77 
76 77 96 99 96 95 82 87 86 
86 82 81 91 90 89 76 80 82 
82 83 89 90 86 86 94 93 91 
85 77 81 90 91 80 81 79 95 
96 99 103 98 98 94 85 77 81 
83 72 72 103 110 116 113 103 101 
101 78 79 69 65 92 99 106 109 
118 119 75 69 70 65 68 94 101 
95 89 91 100 107 67 63 67 73 
77 73 90 94 92 89 94 95 101 
93 65 72 81 88 82 79 68 62 
64 64 60 82 73 71 77 93 101 
95 95 97 96 95 87 76 63 62 
63 63 62 56 58 69 75 79 80 
76 73 74 85 104 108 102 63 53 
51 62 70 73 76 77 74 73 61 
65 61 62 67 63 65 65 63 69 
68 74 76 76 73 72 76 75 67 
71 64 74 84 92 68 77 83 90 
89 90 95 94 95 101 101 101 100 
91 92 87 89 87 90 95 93 86 
83 82 81 79 80 77 80 86 85 
88 92 92 93 93 95 102 97 98 
100 95 89 89 79 74 71 84 89 
89 88 86 85 83 80 79 83 90 
77 80 91 98 89 85 97 91 100 
102 109 76 88 105 114 72 79 107 
113 79 75 72 105 109 81 81 98 
103 89 86 82 93 97 100 100 92 
87 91 103 106 102 99 83 88 88 
87 99 105 85 89 84 86 87 86 
91 88 83 83 91 87 91 71 70 
76 87 101 101 78 71 67 68 104 
101 74 76 81 70 98 96 96 85 
83 74 71 94 97 86 91 88 85 
85 81 89 94 91 89 81 88 99 
101 91 87 84 86 89 84 103 103 
101 94 85 84 95 100 84 85 80 
85 115 109 104 106 106 107 103 96 
72 70 81 118 120 119 115 110 109 
67 70 66 72 91 102 107 109 118 
123 122 68 71 63 62 100 100 95 
100 103 104 107 72 72 71 65 59 
67 80 97 99 98 97 96 98 98 
101 70 69 72 71 68 64 72 84 
81 67 62 79 94 105 107 104 100 
99 96 94 70 72 72 69 75 80 
72 63 60 61 64 57 48 53 66 
69 70 76 76 75 76 78 96 105 
106 64 63 53 49 58 62 63 69 
74 73 75 75 81 78 70 68 76 
77 65 68 68 71 68 65 71 80 
81 83 80 96 91 96 85 96 92 
97 94 100 98 98 92 92 93 88 
90 87 89 87 95 89 97 84 81 
79 77 77 77 84 90 92 100 96 
94 96 94 91 92 93 91 91 87 
77 74 71 79 85 84 87 83 84 
83 89 81 82 81 98 96 80 87 
104 107 107 98 106 116 91 97 119 
122 125 85 93 120 123 76 79 117 
120 83 82 114 117 84 83 107 106 
96 91 86 97 99 99 99 100 89 
90 91 97 101 100 89 92 85 83 
86 96 91 92 85 83 82 85 89 
81 85 85 95 92 91 67 68 76 
95 92 80 79 76 67 96 99 104 
68 65 72 101 101 84 82 76 68 
93 95 88 92 89 83 80 80 79 
88 85 86 90 99 102 94 84 76 
81 81 76 110 112 110 101 91 86 
91 99 72 71 67 75 114 113 113 
116 115 109 101 70 69 72 108 113 
119 116 115 114 72 69 70 73 72 
102 103 105 105 106 110 73 73 75 
73 97 97 98 100 100 102 103 75 
74 76 72 69 104 100 96 92 93 
94 94 95 72 69 71 68 66 69 
75 75 67 71 72 66 79 86 96 
101 101 104 98 94 93 68 63 64 
72 76 71 64 65 67 63 64 63 
57 64 51 52 57 57 61 73 73 
72 78 82 87 93 96 56 52 54 
53 57 68 75 71 76 70 72 72 
73 74 73 78 70 75 71 73 78 
81 81 72 83 84 87 81 83 79 
92 92 94 88 91 96 95 95 95 
91 92 92 91 92 97 93 95 93 
86 88 90 95 96 93 82 79 81 
79 82 87 86 95 107 103 112 104 
95 91 93 90 92 91 86 77 83 
82 75 78 78 81 80 83 82 84 
84 81 100 83 90 113 111 99 109 
110 113 118 121 103 105 126 91 96 
123 86 92 116 86 86 85 110 84 
85 106 88 86 84 101 101 99 91 
93 99 98 99 89 95 92 82 82 
88 97 92 93 81 84 86 81 96 
95 83 83 82 95 68 73 81 95 
94 98 78 75 70 102 65 66 75 
94 97 90 71 62 60 85 84 81 
75 71 74 70 82 80 79 84 98 
90 79 74 71 76 75 89 91 99 
104 98 87 70 72 69 112 114 114 
111 104 96 100 101 65 64 59 68 
109 113 115 111 109 108 106 62 63 
61 66 101 95 100 105 108 104 70 
65 70 94 93 98 92 81 87 93 
71 67 75 76 91 89 90 91 89 
90 90 85 68 67 71 73 71 101 
100 96 94 95 89 87 92 94 68 
67 69 67 65 67 65 65 74 76 
69 63 65 67 66 66 81 84 87 
90 91 97 95 96 102 64 65 69 
71 70 68 75 74 67 67 72 70 
67 67 63 57 56 55 59 70 66 
79 78 73 74 80 85 86 87 77 
80 75 81 83 76 77 81 73 75 
84 80 77 83 88 85 89 82 84 
94 90 92 90 93 92 91 89 88 
91 96 96 94 89 90 95 90 84 
86 87 85 92 88 85 89 93 93 
104 106 115 106 96 99 95 89 85 
85 80 87 80 83 80 80 77 79 
76 79 82 84 76 83 74 85 97 
85 90 85 91 112 105 102 107 111 
115 117 100 103 122 119 98 100 123 
118 97 99 118 111 88 90 112 104 
87 91 105 100 84 83 103 102 94 
88 83 102 98 100 100 97 97 81 
86 97 102 96 86 85 81 79 95 
81 80 85 95 96 94 70 71 77 
98 71 68 68 97 97 91 69 70 
69 84 84 83 57 59 62 79 84 
81 69 69 62 60 79 82 79 73 
70 67 66 66 72 75 72 74 96 
89 77 72 69 68 72 70 68 102 
103 103 99 96 86 69 72 69 65 
98 101 107 107 105 108 102 68 59 
95 95 89 92 102 109 60 59 81 
85 89 89 86 87 63 87 88 85 
80 79 85 89 64 59 97 94 92 
96 94 91 91 80 59 63 93 94 
94 95 101 102 98 97 97 60 65 
59 60 61 64 68 72 74 73 71 
74 72 72 73 76 71 69 69 65 
61 58 57 77 72 78 83 85 85 
92 97 100 96 65 68 71 75 76 
75 75 74 75 76 78 75 69 72 
72 70 63 59 65 75 78 73 77 
80 83 81 93 85 89 81 87 91 
82 82 80 80 83 82 81 74 77 
88 85 88 86 88 80 87 90 89 
92 88 96 90 87 94 97 98 96 
91 94 88 92 90 91 89 88 87 
88 94 94 93 96 96 109 116 108 
113 102 95 90 92 85 78 79 78 
80 77 75 73 74 80 85 83 87 
87 76 85 85 82 93 110 99 106 
106 107 111 99 113 98 113 96 100 
100 92 95 86 90 100 82 85 102 
85 81 103 98 95 91 104 89 97 
103 101 103 107 105 84 81 78 88 
99 99 78 77 83 83 93 73 77 
76 94 90 88 66 66 71 82 66 
64 64 85 89 63 65 62 88 86 
60 64 68 85 81 64 62 65 64 
78 75 70 69 67 64 72 72 73 
75 97 89 77 72 70 69 70 64 
109 110 104 100 91 83 61 63 98 
103 104 110 107 62 86 85 91 96 
101 76 85 91 88 87 93 94 94 
88 81 84 87 90 99 104 105 103 
100 97 96 98 88 84 67 70 99 
104 107 100 104 109 107 101 68 67 
70 71 69 68 73 76 75 74 79 
76 76 78 79 79 74 73 77 75 
69 63 65 69 71 77 75 76 82 
80 80 86 94 105 112 71 67 71 
75 74 72 77 72 76 76 77 82 
80 78 89 78 84 84 81 85 90 
92 92 98 85 91 94 98 91 82 
79 80 79 81 82 84 86 89 90 
97 85 94 91 87 89 96 95 94 
89 90 91 89 88 93 89 95 99 
103 100 100 111 116 111 113 103 95 
94 92 84 78 80 80 80 72 76 
72 70 69 71 75 80 86 84 76 
82 85 86 86 79 77 88 89 93 
95 93 103 102 101 96 98 102 104 
103 96 108 103 98 99 102 94 94 
98 92 93 89 94 99 84 88 101 
103 87 103 103 97 91 105 105 98 
104 102 104 80 80 87 97 98 76 
78 84 92 96 86 71 70 73 79 
67 69 82 78 80 61 64 88 87 
84 72 66 85 83 79 73 79 79 
77 76 64 67 70 76 77 76 68 
70 77 76 74 77 77 75 75 73 
64 97 93 93 89 84 104 103 100 
97 95 97 104 103 101 101 90 95 
105 103 109 86 88 91 93 102 98 
96 98 98 95 86 88 89 108 104 
107 110 105 100 98 99 103 104 67 
66 64 78 78 78 78 80 83 81 
79 83 85 81 75 69 94 101 109 
113 112 108 108 105 71 72 69 70 
74 74 71 76 79 79 79 85 81 
74 76 78 76 75 77 84 82 81 
93 102 113 86 91 93 84 85 84 
88 92 97 102 94 94 101 81 81 
82 85 84 85 82 96 95 98 91 
88 95 88 93 91 95 93 93 92 
90 89 90 90 92 93 90 94 93 
97 100 106 105 104 108 109 109 111 
112 104 107 96 89 85 87 82 84 
81 86 84 74 77 70 71 80 77 
84 86 89 88 86 88 82 80 88 
95 88 86 84 102 90 91 96 102 
99 102 95 108 107 100 103 105 95 
99 97 97 91 104 89 88 107 89 
88 102 98 90 106 104 103 105 105 
106 81 81 87 99 104 99 82 87 
81 84 71 75 77 77 81 78 69 
73 76 77 78 86 63 66 70 82 
75 74 67 81 78 84 90 90 76 
76 80 87 93 77 78 80 77 86 
98 98 75 76 73 83 85 85 68 
97 100 91 90 67 70 98 97 99 
100 103 102 101 99 102 108 111 109 
106 104 93 102 109 110 110 88 89 
88 87 93 104 100 99 100 105 110 
104 90 90 89 62 80 85 85 82 
117 118 115 113 109 103 98 101 106 
116 115 61 68 70 69 69 67 72 
74 72 71 75 79 80 80 83 85 
81 84 86 84 81 82 83 81 85 
77 78 84 85 84 96 105 113 121 
128 123 113 107 69 66 69 72 72 
81 79 83 84 87 96 106 116 97 
100 103 97 94 84 86 85 88 90 
99 106 106 99 97 81 82 82 84 
86 86 91 82 97 100 98 90 91 
95 94 92 90 90 93 97 97 97 
102 108 109 112 112 113 111 111 107 
97 87 93 85 87 90 93 94 89 
93 79 70 71 68 76 86 82 91 
92 88 92 93 91 89 81 85 88 
85 89 83 85 100 95 99 104 106 
94 100 113 96 110 98 100 99 101 
94 100 102 104 90 107 108 86 87 
107 103 96 88 102 102 105 103 105 
83 91 101 98 83 87 84 90 97 
89 77 80 80 77 84 78 82 70 
76 79 79 77 84 74 77 78 79 
98 101 78 80 78 102 103 79 77 
102 108 112 75 71 91 99 116 72 
73 72 97 99 97 100 102 101 101 
102 108 108 111 110 112 109 109 109 
109 110 112 90 100 107 109 98 90 
91 92 94 106 102 96 95 98 104 
113 115 97 90 65 60 64 71 71 
74 82 85 84 84 86 86 85 85 
86 87 87 87 91 124 132 131 123 
115 106 98 96 94 100 66 68 66 
67 69 72 70 88 84 82 82 83 
87 95 107 119 132 134 126 110 113 
107 108 111 101 104 98 98 102 102 
101 101 98 87 91 90 90 90 94 
88 83 88 93 84 98 101 97 92 
91 99 90 92 91 98 94 97 101 
103 108 104 101 107 106 113 112 112 
118 117 116 119 110 105 99 100 95 
87 91 87 93 97 100 95 79 70 
71 67 77 84 79 86 83 96 90 
98 86 88 82 89 87 87 82 91 
102 96 101 107 105 112 94 102 116 
120 97 121 119 101 111 107 96 102 
102 103 93 108 112 87 90 113 108 
96 90 101 99 107 105 101 102 88 
97 103 104 105 87 88 90 98 102 
96 81 86 87 83 88 88 91 86 
80 83 78 78 84 77 84 82 84 
79 81 106 106 95 85 81 107 111 
111 80 78 117 125 116 75 72 120 
133 130 72 72 106 115 119 73 107 
105 110 114 120 118 116 113 114 116 
119 110 111 113 116 117 108 105 104 
110 93 94 97 103 106 109 116 111 
95 86 91 97 61 59 63 71 79 
86 91 90 92 96 99 100 95 91 
93 95 93 119 113 105 99 98 95 
95 107 111 98 65 66 67 66 66 
67 73 71 95 93 90 87 85 83 
84 83 87 95 106 121 131 134 135 
124 117 110 101 97 84 91 101 119 
133 108 111 101 114 114 110 100 99 
103 107 102 98 96 94 95 86 91 
85 95 87 93 99 100 92 94 98 
98 102 107 103 98 96 102 104 113 
110 113 111 114 113 117 120 123 119 
109 104 103 98 95 89 93 91 91 
89 99 92 72 82 75 68 69 68 
70 74 79 86 85 101 89 84 87 
103 86 83 92 81 81 94 90 94 
104 105 109 118 96 105 121 97 114 
102 102 98 104 106 94 92 96 111 
90 101 96 93 97 97 95 109 106 
97 98 93 99 107 103 102 90 93 
97 100 90 88 93 97 86 96 98 
92 78 92 103 80 79 83 94 95 
85 90 88 115 105 84 117 119 82 
79 134 121 77 73 129 136 139 72 
124 136 131 74 115 120 128 121 122 
124 118 123 130 113 116 124 125 102 
100 105 111 100 102 102 99 86 85 
90 99 102 73 82 92 97 94 98 
107 112 111 104 98 105 96 95 96 
102 106 99 84 87 64 66 68 67 
66 66 67 71 74 100 97 93 91 
90 88 91 85 135 134 127 123 121 
118 109 101 99 98 98 87 83 83 
88 99 117 133 137 129 126 101 105 
109 105 102 103 102 111 114 114 110 
102 98 101 109 105 102 103 96 88 
100 90 94 99 99 95 100 98 111 
106 105 102 108 112 117 117 117 117 
115 113 112 115 122 120 111 111 99 
95 95 93 92 92 91 90 96 88 
92 88 79 82 71 69 72 72 75 
82 90 79 81 104 84 107 82 94 
94 99 89 100 97 100 105 106 103 
110 109 106 112 113 117 97 125 123 
97 121 114 104 104 103 108 106 100 
107 111 95 98 111 109 93 107 100 
96 95 94 111 107 93 94 92 103 
104 108 112 96 96 94 98 101 99 
93 91 88 103 99 79 84 80 102 
111 84 107 105 93 96 121 115 89 
120 126 84 81 133 125 77 81 138 
142 134 80 76 143 137 75 75 125 
133 133 73 127 127 128 128 133 131 
119 124 130 98 98 102 112 101 98 
94 92 95 99 101 99 76 76 81 
89 98 100 98 103 117 124 116 112 
116 102 100 94 84 87 98 64 67 
67 69 72 70 67 66 67 72 109 
103 98 95 94 93 91 126 128 123 
111 109 107 104 97 97 97 88 89 
85 83 83 88 96 113 129 134 128 
124 128 129 121 113 112 110 112 103 
105 110 114 115 110 103 98 100 107 
110 108 108 103 92 107 93 94 98 
97 98 103 96 113 110 110 107 117 